 TITLE = "mesh"
 VARIABLES = "X", "Y", "Z", "field"
 Zone N = 1331, E = 1000, DATAPACKING = POINT, ZONETYPE = FEBRICK

 0.0000000000000000 0.0000000000000000 0.0000000000000000 1.0
 1.0000000000000000 0.0000000000000000 0.0000000000000000 1.0
 0.0000000000000000 1.0000000000000000 0.0000000000000000 1.0
 1.0000000000000000 1.0000000000000000 0.0000000000000000 1.0
 0.0000000000000000 0.0000000000000000 1.0000000000000000 1.0
 1.0000000000000000 0.0000000000000000 1.0000000000000000 1.0
 0.0000000000000000 1.0000000000000000 1.0000000000000000 1.0
 1.0000000000000000 1.0000000000000000 1.0000000000000000 1.0
 0.10000000000000001 0.0000000000000000 0.0000000000000000 1.0
 0.10000000000000001 1.0000000000000000 0.0000000000000000 1.0
 0.10000000000000001 0.0000000000000000 1.0000000000000000 1.0
 0.10000000000000001 1.0000000000000000 1.0000000000000000 1.0
 0.19999999999999990 0.0000000000000000 0.0000000000000000 1.0
 0.19999999999999990 1.0000000000000000 0.0000000000000000 1.0
 0.19999999999999990 0.0000000000000000 1.0000000000000000 1.0
 0.19999999999999990 1.0000000000000000 1.0000000000000000 1.0
 0.29999999999999993 0.0000000000000000 0.0000000000000000 1.0
 0.29999999999999993 1.0000000000000000 0.0000000000000000 1.0
 0.29999999999999993 0.0000000000000000 1.0000000000000000 1.0
 0.29999999999999993 1.0000000000000000 1.0000000000000000 1.0
 0.40000000000000002 0.0000000000000000 0.0000000000000000 1.0
 0.40000000000000002 1.0000000000000000 0.0000000000000000 1.0
 0.40000000000000002 0.0000000000000000 1.0000000000000000 1.0
 0.40000000000000002 1.0000000000000000 1.0000000000000000 1.0
 0.50000000000000022 0.0000000000000000 0.0000000000000000 1.0
 0.50000000000000022 1.0000000000000000 0.0000000000000000 1.0
 0.50000000000000022 0.0000000000000000 1.0000000000000000 1.0
 0.50000000000000022 1.0000000000000000 1.0000000000000000 1.0
 0.60000000000000020 0.0000000000000000 0.0000000000000000 1.0
 0.60000000000000020 1.0000000000000000 0.0000000000000000 1.0
 0.60000000000000020 0.0000000000000000 1.0000000000000000 1.0
 0.60000000000000020 1.0000000000000000 1.0000000000000000 1.0
 0.70000000000000018 0.0000000000000000 0.0000000000000000 1.0
 0.70000000000000018 1.0000000000000000 0.0000000000000000 1.0
 0.70000000000000018 0.0000000000000000 1.0000000000000000 1.0
 0.70000000000000018 1.0000000000000000 1.0000000000000000 1.0
 0.80000000000000004 0.0000000000000000 0.0000000000000000 1.0
 0.80000000000000004 1.0000000000000000 0.0000000000000000 1.0
 0.80000000000000004 0.0000000000000000 1.0000000000000000 1.0
 0.80000000000000004 1.0000000000000000 1.0000000000000000 1.0
 0.90000000000000002 0.0000000000000000 0.0000000000000000 1.0
 0.90000000000000002 1.0000000000000000 0.0000000000000000 1.0
 0.90000000000000002 0.0000000000000000 1.0000000000000000 1.0
 0.90000000000000002 1.0000000000000000 1.0000000000000000 1.0
 0.0000000000000000 0.10000000000000001 0.0000000000000000 1.0
 0.0000000000000000 0.10000000000000001 1.0000000000000000 1.0
 0.10000000000000001 0.10000000000000001 0.0000000000000000 1.0
 0.10000000000000001 0.10000000000000001 1.0000000000000000 1.0
 0.19999999999999990 0.10000000000000001 0.0000000000000000 1.0
 0.19999999999999990 0.10000000000000001 1.0000000000000000 1.0
 0.29999999999999993 0.10000000000000001 0.0000000000000000 1.0
 0.29999999999999993 0.10000000000000001 1.0000000000000000 1.0
 0.40000000000000002 0.10000000000000001 0.0000000000000000 1.0
 0.40000000000000002 0.10000000000000001 1.0000000000000000 1.0
 0.50000000000000022 0.10000000000000001 0.0000000000000000 1.0
 0.50000000000000022 0.10000000000000001 1.0000000000000000 1.0
 0.60000000000000020 0.10000000000000001 0.0000000000000000 1.0
 0.60000000000000020 0.10000000000000001 1.0000000000000000 1.0
 0.70000000000000029 0.10000000000000001 0.0000000000000000 1.0
 0.70000000000000029 0.10000000000000001 1.0000000000000000 1.0
 0.80000000000000004 0.10000000000000001 0.0000000000000000 1.0
 0.80000000000000004 0.10000000000000001 1.0000000000000000 1.0
 0.90000000000000002 0.10000000000000001 0.0000000000000000 1.0
 0.90000000000000002 0.10000000000000001 1.0000000000000000 1.0
 1.0000000000000000 0.10000000000000001 0.0000000000000000 1.0
 1.0000000000000000 0.10000000000000001 1.0000000000000000 1.0
 0.0000000000000000 0.19999999999999990 0.0000000000000000 1.0
 0.0000000000000000 0.19999999999999990 1.0000000000000000 1.0
 0.10000000000000001 0.19999999999999990 0.0000000000000000 1.0
 0.10000000000000001 0.19999999999999990 1.0000000000000000 1.0
 0.19999999999999993 0.19999999999999990 0.0000000000000000 1.0
 0.19999999999999993 0.19999999999999990 1.0000000000000000 1.0
 0.29999999999999993 0.19999999999999990 0.0000000000000000 1.0
 0.29999999999999993 0.19999999999999990 1.0000000000000000 1.0
 0.40000000000000002 0.19999999999999990 0.0000000000000000 1.0
 0.40000000000000002 0.19999999999999990 1.0000000000000000 1.0
 0.50000000000000022 0.19999999999999990 0.0000000000000000 1.0
 0.50000000000000022 0.19999999999999990 1.0000000000000000 1.0
 0.60000000000000031 0.19999999999999990 0.0000000000000000 1.0
 0.60000000000000031 0.19999999999999990 1.0000000000000000 1.0
 0.70000000000000029 0.19999999999999990 0.0000000000000000 1.0
 0.70000000000000029 0.19999999999999990 1.0000000000000000 1.0
 0.80000000000000004 0.19999999999999990 0.0000000000000000 1.0
 0.80000000000000004 0.19999999999999990 1.0000000000000000 1.0
 0.90000000000000002 0.19999999999999990 0.0000000000000000 1.0
 0.90000000000000002 0.19999999999999990 1.0000000000000000 1.0
 1.0000000000000000 0.19999999999999990 0.0000000000000000 1.0
 1.0000000000000000 0.19999999999999990 1.0000000000000000 1.0
 0.0000000000000000 0.29999999999999993 0.0000000000000000 1.0
 0.0000000000000000 0.29999999999999993 1.0000000000000000 1.0
 0.10000000000000001 0.29999999999999993 0.0000000000000000 1.0
 0.10000000000000001 0.29999999999999993 1.0000000000000000 1.0
 0.19999999999999993 0.29999999999999993 0.0000000000000000 1.0
 0.19999999999999993 0.29999999999999993 1.0000000000000000 1.0
 0.29999999999999993 0.29999999999999993 0.0000000000000000 1.0
 0.29999999999999993 0.29999999999999993 1.0000000000000000 1.0
 0.40000000000000002 0.29999999999999993 0.0000000000000000 1.0
 0.40000000000000002 0.29999999999999993 1.0000000000000000 1.0
 0.50000000000000022 0.29999999999999993 0.0000000000000000 1.0
 0.50000000000000022 0.29999999999999993 1.0000000000000000 1.0
 0.60000000000000031 0.29999999999999993 0.0000000000000000 1.0
 0.60000000000000031 0.29999999999999993 1.0000000000000000 1.0
 0.70000000000000029 0.29999999999999993 0.0000000000000000 1.0
 0.70000000000000029 0.29999999999999993 1.0000000000000000 1.0
 0.80000000000000004 0.29999999999999993 0.0000000000000000 1.0
 0.80000000000000004 0.29999999999999993 1.0000000000000000 1.0
 0.90000000000000002 0.29999999999999993 0.0000000000000000 1.0
 0.90000000000000002 0.29999999999999993 1.0000000000000000 1.0
 1.0000000000000000 0.29999999999999993 0.0000000000000000 1.0
 1.0000000000000000 0.29999999999999993 1.0000000000000000 1.0
 0.0000000000000000 0.40000000000000002 0.0000000000000000 1.0
 0.0000000000000000 0.40000000000000002 1.0000000000000000 1.0
 0.10000000000000001 0.40000000000000002 0.0000000000000000 1.0
 0.10000000000000001 0.40000000000000002 1.0000000000000000 1.0
 0.19999999999999993 0.40000000000000002 0.0000000000000000 1.0
 0.19999999999999993 0.40000000000000002 1.0000000000000000 1.0
 0.29999999999999993 0.40000000000000002 0.0000000000000000 1.0
 0.29999999999999993 0.40000000000000002 1.0000000000000000 1.0
 0.40000000000000002 0.40000000000000002 0.0000000000000000 1.0
 0.40000000000000002 0.40000000000000002 1.0000000000000000 1.0
 0.50000000000000022 0.40000000000000002 0.0000000000000000 1.0
 0.50000000000000022 0.40000000000000002 1.0000000000000000 1.0
 0.60000000000000031 0.40000000000000002 0.0000000000000000 1.0
 0.60000000000000031 0.40000000000000002 1.0000000000000000 1.0
 0.70000000000000018 0.40000000000000002 0.0000000000000000 1.0
 0.70000000000000018 0.40000000000000002 1.0000000000000000 1.0
 0.80000000000000004 0.40000000000000002 0.0000000000000000 1.0
 0.80000000000000004 0.40000000000000002 1.0000000000000000 1.0
 0.90000000000000002 0.40000000000000002 0.0000000000000000 1.0
 0.90000000000000002 0.40000000000000002 1.0000000000000000 1.0
 1.0000000000000000 0.40000000000000002 0.0000000000000000 1.0
 1.0000000000000000 0.40000000000000002 1.0000000000000000 1.0
 0.0000000000000000 0.50000000000000022 0.0000000000000000 1.0
 0.0000000000000000 0.50000000000000022 1.0000000000000000 1.0
 0.10000000000000002 0.50000000000000022 0.0000000000000000 1.0
 0.10000000000000002 0.50000000000000022 1.0000000000000000 1.0
 0.19999999999999993 0.50000000000000022 0.0000000000000000 1.0
 0.19999999999999993 0.50000000000000022 1.0000000000000000 1.0
 0.29999999999999993 0.50000000000000022 0.0000000000000000 1.0
 0.29999999999999993 0.50000000000000022 1.0000000000000000 1.0
 0.40000000000000008 0.50000000000000022 0.0000000000000000 1.0
 0.40000000000000008 0.50000000000000022 1.0000000000000000 1.0
 0.50000000000000022 0.50000000000000022 0.0000000000000000 1.0
 0.50000000000000022 0.50000000000000022 1.0000000000000000 1.0
 0.60000000000000031 0.50000000000000022 0.0000000000000000 1.0
 0.60000000000000031 0.50000000000000022 1.0000000000000000 1.0
 0.70000000000000018 0.50000000000000022 0.0000000000000000 1.0
 0.70000000000000018 0.50000000000000022 1.0000000000000000 1.0
 0.80000000000000016 0.50000000000000022 0.0000000000000000 1.0
 0.80000000000000016 0.50000000000000022 1.0000000000000000 1.0
 0.90000000000000013 0.50000000000000022 0.0000000000000000 1.0
 0.90000000000000013 0.50000000000000022 1.0000000000000000 1.0
 1.0000000000000000 0.50000000000000022 0.0000000000000000 1.0
 1.0000000000000000 0.50000000000000022 1.0000000000000000 1.0
 0.0000000000000000 0.60000000000000020 0.0000000000000000 1.0
 0.0000000000000000 0.60000000000000020 1.0000000000000000 1.0
 0.10000000000000002 0.60000000000000020 0.0000000000000000 1.0
 0.10000000000000002 0.60000000000000020 1.0000000000000000 1.0
 0.19999999999999993 0.60000000000000020 0.0000000000000000 1.0
 0.19999999999999993 0.60000000000000020 1.0000000000000000 1.0
 0.29999999999999993 0.60000000000000020 0.0000000000000000 1.0
 0.29999999999999993 0.60000000000000020 1.0000000000000000 1.0
 0.40000000000000008 0.60000000000000020 0.0000000000000000 1.0
 0.40000000000000008 0.60000000000000020 1.0000000000000000 1.0
 0.50000000000000022 0.60000000000000020 0.0000000000000000 1.0
 0.50000000000000022 0.60000000000000020 1.0000000000000000 1.0
 0.60000000000000031 0.60000000000000020 0.0000000000000000 1.0
 0.60000000000000031 0.60000000000000020 1.0000000000000000 1.0
 0.70000000000000018 0.60000000000000020 0.0000000000000000 1.0
 0.70000000000000018 0.60000000000000020 1.0000000000000000 1.0
 0.80000000000000016 0.60000000000000020 0.0000000000000000 1.0
 0.80000000000000016 0.60000000000000020 1.0000000000000000 1.0
 0.90000000000000024 0.60000000000000020 0.0000000000000000 1.0
 0.90000000000000024 0.60000000000000020 1.0000000000000000 1.0
 1.0000000000000000 0.60000000000000020 0.0000000000000000 1.0
 1.0000000000000000 0.60000000000000020 1.0000000000000000 1.0
 0.0000000000000000 0.70000000000000018 0.0000000000000000 1.0
 0.0000000000000000 0.70000000000000018 1.0000000000000000 1.0
 0.10000000000000001 0.70000000000000018 0.0000000000000000 1.0
 0.10000000000000001 0.70000000000000018 1.0000000000000000 1.0
 0.19999999999999990 0.70000000000000018 0.0000000000000000 1.0
 0.19999999999999990 0.70000000000000018 1.0000000000000000 1.0
 0.29999999999999993 0.70000000000000018 0.0000000000000000 1.0
 0.29999999999999993 0.70000000000000018 1.0000000000000000 1.0
 0.40000000000000002 0.70000000000000018 0.0000000000000000 1.0
 0.40000000000000002 0.70000000000000018 1.0000000000000000 1.0
 0.50000000000000022 0.70000000000000018 0.0000000000000000 1.0
 0.50000000000000022 0.70000000000000018 1.0000000000000000 1.0
 0.60000000000000031 0.70000000000000018 0.0000000000000000 1.0
 0.60000000000000031 0.70000000000000018 1.0000000000000000 1.0
 0.70000000000000018 0.70000000000000018 0.0000000000000000 1.0
 0.70000000000000018 0.70000000000000018 1.0000000000000000 1.0
 0.80000000000000004 0.70000000000000018 0.0000000000000000 1.0
 0.80000000000000004 0.70000000000000018 1.0000000000000000 1.0
 0.90000000000000013 0.70000000000000018 0.0000000000000000 1.0
 0.90000000000000013 0.70000000000000018 1.0000000000000000 1.0
 1.0000000000000000 0.70000000000000018 0.0000000000000000 1.0
 1.0000000000000000 0.70000000000000018 1.0000000000000000 1.0
 0.0000000000000000 0.80000000000000004 0.0000000000000000 1.0
 0.0000000000000000 0.80000000000000004 1.0000000000000000 1.0
 0.99999999999999992E-01 0.80000000000000004 0.0000000000000000 1.0
 0.99999999999999992E-01 0.80000000000000004 1.0000000000000000 1.0
 0.19999999999999990 0.80000000000000004 0.0000000000000000 1.0
 0.19999999999999990 0.80000000000000004 1.0000000000000000 1.0
 0.29999999999999993 0.80000000000000004 0.0000000000000000 1.0
 0.29999999999999993 0.80000000000000004 1.0000000000000000 1.0
 0.39999999999999997 0.80000000000000004 0.0000000000000000 1.0
 0.39999999999999997 0.80000000000000004 1.0000000000000000 1.0
 0.50000000000000022 0.80000000000000004 0.0000000000000000 1.0
 0.50000000000000022 0.80000000000000004 1.0000000000000000 1.0
 0.60000000000000031 0.80000000000000004 0.0000000000000000 1.0
 0.60000000000000031 0.80000000000000004 1.0000000000000000 1.0
 0.70000000000000018 0.80000000000000004 0.0000000000000000 1.0
 0.70000000000000018 0.80000000000000004 1.0000000000000000 1.0
 0.79999999999999993 0.80000000000000004 0.0000000000000000 1.0
 0.79999999999999993 0.80000000000000004 1.0000000000000000 1.0
 0.90000000000000002 0.80000000000000004 0.0000000000000000 1.0
 0.90000000000000002 0.80000000000000004 1.0000000000000000 1.0
 1.0000000000000000 0.80000000000000004 0.0000000000000000 1.0
 1.0000000000000000 0.80000000000000004 1.0000000000000000 1.0
 0.0000000000000000 0.90000000000000002 0.0000000000000000 1.0
 0.0000000000000000 0.90000000000000002 1.0000000000000000 1.0
 0.10000000000000001 0.90000000000000002 0.0000000000000000 1.0
 0.10000000000000001 0.90000000000000002 1.0000000000000000 1.0
 0.19999999999999990 0.90000000000000002 0.0000000000000000 1.0
 0.19999999999999990 0.90000000000000002 1.0000000000000000 1.0
 0.29999999999999993 0.90000000000000002 0.0000000000000000 1.0
 0.29999999999999993 0.90000000000000002 1.0000000000000000 1.0
 0.40000000000000002 0.90000000000000002 0.0000000000000000 1.0
 0.40000000000000002 0.90000000000000002 1.0000000000000000 1.0
 0.50000000000000022 0.90000000000000002 0.0000000000000000 1.0
 0.50000000000000022 0.90000000000000002 1.0000000000000000 1.0
 0.60000000000000031 0.90000000000000002 0.0000000000000000 1.0
 0.60000000000000031 0.90000000000000002 1.0000000000000000 1.0
 0.70000000000000018 0.90000000000000002 0.0000000000000000 1.0
 0.70000000000000018 0.90000000000000002 1.0000000000000000 1.0
 0.80000000000000004 0.90000000000000002 0.0000000000000000 1.0
 0.80000000000000004 0.90000000000000002 1.0000000000000000 1.0
 0.90000000000000002 0.90000000000000002 0.0000000000000000 1.0
 0.90000000000000002 0.90000000000000002 1.0000000000000000 1.0
 1.0000000000000000 0.90000000000000002 0.0000000000000000 1.0
 1.0000000000000000 0.90000000000000002 1.0000000000000000 1.0
 0.0000000000000000 0.0000000000000000 0.10000000000000001 1.0
 0.10000000000000001 0.0000000000000000 0.10000000000000001 1.0
 0.0000000000000000 0.10000000000000001 0.10000000000000001 1.0
 0.10000000000000001 0.10000000000000001 0.10000000000000001 1.0
 0.19999999999999990 0.0000000000000000 0.10000000000000001 1.0
 0.19999999999999990 0.10000000000000001 0.10000000000000001 1.0
 0.29999999999999993 0.0000000000000000 0.10000000000000001 1.0
 0.29999999999999993 0.10000000000000001 0.10000000000000001 1.0
 0.40000000000000002 0.0000000000000000 0.10000000000000001 1.0
 0.40000000000000002 0.10000000000000001 0.10000000000000001 1.0
 0.50000000000000022 0.0000000000000000 0.10000000000000001 1.0
 0.50000000000000022 0.10000000000000001 0.10000000000000001 1.0
 0.60000000000000020 0.0000000000000000 0.10000000000000001 1.0
 0.60000000000000020 0.10000000000000001 0.10000000000000001 1.0
 0.70000000000000029 0.0000000000000000 0.10000000000000001 1.0
 0.70000000000000029 0.10000000000000001 0.10000000000000001 1.0
 0.80000000000000004 0.0000000000000000 0.10000000000000001 1.0
 0.80000000000000004 0.10000000000000001 0.10000000000000001 1.0
 0.90000000000000002 0.0000000000000000 0.10000000000000001 1.0
 0.90000000000000002 0.10000000000000001 0.10000000000000001 1.0
 1.0000000000000000 0.0000000000000000 0.10000000000000001 1.0
 1.0000000000000000 0.10000000000000001 0.10000000000000001 1.0
 0.0000000000000000 0.19999999999999990 0.10000000000000001 1.0
 0.10000000000000001 0.19999999999999990 0.10000000000000001 1.0
 0.19999999999999993 0.19999999999999990 0.10000000000000001 1.0
 0.29999999999999993 0.19999999999999990 0.10000000000000001 1.0
 0.40000000000000002 0.19999999999999990 0.10000000000000001 1.0
 0.50000000000000022 0.19999999999999990 0.10000000000000001 1.0
 0.60000000000000031 0.19999999999999990 0.10000000000000001 1.0
 0.70000000000000029 0.19999999999999990 0.10000000000000001 1.0
 0.80000000000000004 0.19999999999999990 0.10000000000000001 1.0
 0.90000000000000002 0.19999999999999990 0.10000000000000001 1.0
 1.0000000000000000 0.19999999999999990 0.10000000000000001 1.0
 0.0000000000000000 0.29999999999999993 0.10000000000000001 1.0
 0.10000000000000001 0.29999999999999993 0.10000000000000001 1.0
 0.19999999999999993 0.29999999999999993 0.10000000000000001 1.0
 0.29999999999999993 0.29999999999999993 0.10000000000000001 1.0
 0.40000000000000002 0.29999999999999993 0.10000000000000001 1.0
 0.50000000000000022 0.29999999999999993 0.10000000000000001 1.0
 0.60000000000000031 0.29999999999999993 0.10000000000000001 1.0
 0.70000000000000029 0.29999999999999993 0.10000000000000001 1.0
 0.80000000000000004 0.29999999999999993 0.10000000000000001 1.0
 0.90000000000000002 0.29999999999999993 0.10000000000000001 1.0
 1.0000000000000000 0.29999999999999993 0.10000000000000001 1.0
 0.0000000000000000 0.40000000000000002 0.10000000000000001 1.0
 0.10000000000000001 0.40000000000000002 0.10000000000000001 1.0
 0.19999999999999993 0.40000000000000002 0.10000000000000001 1.0
 0.29999999999999993 0.40000000000000002 0.10000000000000001 1.0
 0.40000000000000002 0.40000000000000002 0.10000000000000001 1.0
 0.50000000000000022 0.40000000000000002 0.10000000000000001 1.0
 0.60000000000000031 0.40000000000000002 0.10000000000000001 1.0
 0.70000000000000029 0.40000000000000002 0.10000000000000001 1.0
 0.80000000000000004 0.40000000000000002 0.10000000000000001 1.0
 0.90000000000000002 0.40000000000000002 0.10000000000000001 1.0
 1.0000000000000000 0.40000000000000002 0.10000000000000001 1.0
 0.0000000000000000 0.50000000000000022 0.10000000000000001 1.0
 0.10000000000000003 0.50000000000000022 0.10000000000000001 1.0
 0.19999999999999993 0.50000000000000022 0.10000000000000001 1.0
 0.29999999999999993 0.50000000000000022 0.10000000000000001 1.0
 0.40000000000000013 0.50000000000000022 0.10000000000000001 1.0
 0.50000000000000022 0.50000000000000022 0.10000000000000001 1.0
 0.60000000000000031 0.50000000000000022 0.10000000000000001 1.0
 0.70000000000000029 0.50000000000000022 0.10000000000000001 1.0
 0.80000000000000027 0.50000000000000022 0.10000000000000001 1.0
 0.90000000000000013 0.50000000000000022 0.10000000000000001 1.0
 1.0000000000000000 0.50000000000000022 0.10000000000000001 1.0
 0.0000000000000000 0.60000000000000020 0.10000000000000001 1.0
 0.10000000000000003 0.60000000000000020 0.10000000000000001 1.0
 0.19999999999999993 0.60000000000000020 0.10000000000000001 1.0
 0.29999999999999993 0.60000000000000020 0.10000000000000001 1.0
 0.40000000000000013 0.60000000000000020 0.10000000000000001 1.0
 0.50000000000000022 0.60000000000000020 0.10000000000000001 1.0
 0.60000000000000031 0.60000000000000020 0.10000000000000001 1.0
 0.70000000000000029 0.60000000000000020 0.10000000000000001 1.0
 0.80000000000000027 0.60000000000000020 0.10000000000000001 1.0
 0.90000000000000036 0.60000000000000020 0.10000000000000001 1.0
 1.0000000000000000 0.60000000000000020 0.10000000000000001 1.0
 0.0000000000000000 0.70000000000000029 0.10000000000000001 1.0
 0.10000000000000001 0.70000000000000029 0.10000000000000001 1.0
 0.19999999999999990 0.70000000000000029 0.10000000000000001 1.0
 0.29999999999999993 0.70000000000000029 0.10000000000000001 1.0
 0.40000000000000002 0.70000000000000029 0.10000000000000001 1.0
 0.50000000000000022 0.70000000000000029 0.10000000000000001 1.0
 0.60000000000000031 0.70000000000000029 0.10000000000000001 1.0
 0.70000000000000029 0.70000000000000029 0.10000000000000001 1.0
 0.80000000000000004 0.70000000000000029 0.10000000000000001 1.0
 0.90000000000000013 0.70000000000000029 0.10000000000000001 1.0
 1.0000000000000000 0.70000000000000029 0.10000000000000001 1.0
 0.0000000000000000 0.80000000000000004 0.10000000000000001 1.0
 0.99999999999999992E-01 0.80000000000000004 0.10000000000000001 1.0
 0.19999999999999990 0.80000000000000004 0.10000000000000001 1.0
 0.29999999999999993 0.80000000000000004 0.10000000000000001 1.0
 0.39999999999999997 0.80000000000000004 0.10000000000000001 1.0
 0.50000000000000022 0.80000000000000004 0.10000000000000001 1.0
 0.60000000000000031 0.80000000000000004 0.10000000000000001 1.0
 0.70000000000000029 0.80000000000000004 0.10000000000000001 1.0
 0.79999999999999993 0.80000000000000004 0.10000000000000001 1.0
 0.90000000000000002 0.80000000000000004 0.10000000000000001 1.0
 1.0000000000000000 0.80000000000000004 0.10000000000000001 1.0
 0.0000000000000000 0.90000000000000002 0.10000000000000001 1.0
 0.10000000000000001 0.90000000000000002 0.10000000000000001 1.0
 0.19999999999999990 0.90000000000000002 0.10000000000000001 1.0
 0.29999999999999993 0.90000000000000002 0.10000000000000001 1.0
 0.40000000000000002 0.90000000000000002 0.10000000000000001 1.0
 0.50000000000000022 0.90000000000000002 0.10000000000000001 1.0
 0.60000000000000031 0.90000000000000002 0.10000000000000001 1.0
 0.70000000000000029 0.90000000000000002 0.10000000000000001 1.0
 0.80000000000000004 0.90000000000000002 0.10000000000000001 1.0
 0.90000000000000002 0.90000000000000002 0.10000000000000001 1.0
 1.0000000000000000 0.90000000000000002 0.10000000000000001 1.0
 0.0000000000000000 1.0000000000000000 0.10000000000000001 1.0
 0.10000000000000001 1.0000000000000000 0.10000000000000001 1.0
 0.19999999999999990 1.0000000000000000 0.10000000000000001 1.0
 0.29999999999999993 1.0000000000000000 0.10000000000000001 1.0
 0.40000000000000002 1.0000000000000000 0.10000000000000001 1.0
 0.50000000000000022 1.0000000000000000 0.10000000000000001 1.0
 0.60000000000000020 1.0000000000000000 0.10000000000000001 1.0
 0.70000000000000029 1.0000000000000000 0.10000000000000001 1.0
 0.80000000000000004 1.0000000000000000 0.10000000000000001 1.0
 0.90000000000000002 1.0000000000000000 0.10000000000000001 1.0
 1.0000000000000000 1.0000000000000000 0.10000000000000001 1.0
 0.0000000000000000 0.0000000000000000 0.19999999999999990 1.0
 0.10000000000000001 0.0000000000000000 0.19999999999999990 1.0
 0.0000000000000000 0.10000000000000001 0.19999999999999990 1.0
 0.10000000000000001 0.10000000000000001 0.19999999999999990 1.0
 0.19999999999999993 0.0000000000000000 0.19999999999999990 1.0
 0.19999999999999993 0.10000000000000001 0.19999999999999990 1.0
 0.29999999999999993 0.0000000000000000 0.19999999999999990 1.0
 0.29999999999999993 0.10000000000000001 0.19999999999999990 1.0
 0.40000000000000002 0.0000000000000000 0.19999999999999990 1.0
 0.40000000000000002 0.10000000000000001 0.19999999999999990 1.0
 0.50000000000000022 0.0000000000000000 0.19999999999999990 1.0
 0.50000000000000022 0.10000000000000001 0.19999999999999990 1.0
 0.60000000000000031 0.0000000000000000 0.19999999999999990 1.0
 0.60000000000000031 0.10000000000000001 0.19999999999999990 1.0
 0.70000000000000029 0.0000000000000000 0.19999999999999990 1.0
 0.70000000000000029 0.10000000000000001 0.19999999999999990 1.0
 0.80000000000000004 0.0000000000000000 0.19999999999999990 1.0
 0.80000000000000004 0.10000000000000001 0.19999999999999990 1.0
 0.90000000000000002 0.0000000000000000 0.19999999999999990 1.0
 0.90000000000000002 0.10000000000000001 0.19999999999999990 1.0
 1.0000000000000000 0.0000000000000000 0.19999999999999990 1.0
 1.0000000000000000 0.10000000000000001 0.19999999999999990 1.0
 0.0000000000000000 0.19999999999999993 0.19999999999999990 1.0
 0.10000000000000001 0.19999999999999993 0.19999999999999990 1.0
 0.19999999999999996 0.19999999999999993 0.19999999999999990 1.0
 0.29999999999999993 0.19999999999999993 0.19999999999999990 1.0
 0.40000000000000002 0.19999999999999993 0.19999999999999990 1.0
 0.50000000000000022 0.19999999999999993 0.19999999999999990 1.0
 0.60000000000000031 0.19999999999999993 0.19999999999999990 1.0
 0.70000000000000029 0.19999999999999993 0.19999999999999990 1.0
 0.80000000000000004 0.19999999999999993 0.19999999999999990 1.0
 0.90000000000000002 0.19999999999999993 0.19999999999999990 1.0
 1.0000000000000000 0.19999999999999993 0.19999999999999990 1.0
 0.0000000000000000 0.29999999999999993 0.19999999999999990 1.0
 0.10000000000000001 0.29999999999999993 0.19999999999999990 1.0
 0.19999999999999996 0.29999999999999993 0.19999999999999990 1.0
 0.29999999999999993 0.29999999999999993 0.19999999999999990 1.0
 0.40000000000000002 0.29999999999999993 0.19999999999999990 1.0
 0.50000000000000022 0.29999999999999993 0.19999999999999990 1.0
 0.60000000000000031 0.29999999999999993 0.19999999999999990 1.0
 0.70000000000000029 0.29999999999999993 0.19999999999999990 1.0
 0.80000000000000004 0.29999999999999993 0.19999999999999990 1.0
 0.90000000000000002 0.29999999999999993 0.19999999999999990 1.0
 1.0000000000000000 0.29999999999999993 0.19999999999999990 1.0
 0.0000000000000000 0.40000000000000002 0.19999999999999990 1.0
 0.10000000000000001 0.40000000000000002 0.19999999999999990 1.0
 0.19999999999999996 0.40000000000000002 0.19999999999999990 1.0
 0.29999999999999993 0.40000000000000002 0.19999999999999990 1.0
 0.40000000000000002 0.40000000000000002 0.19999999999999990 1.0
 0.50000000000000022 0.40000000000000002 0.19999999999999990 1.0
 0.60000000000000031 0.40000000000000002 0.19999999999999990 1.0
 0.70000000000000029 0.40000000000000002 0.19999999999999990 1.0
 0.80000000000000004 0.40000000000000002 0.19999999999999990 1.0
 0.90000000000000002 0.40000000000000002 0.19999999999999990 1.0
 1.0000000000000000 0.40000000000000002 0.19999999999999990 1.0
 0.0000000000000000 0.50000000000000022 0.19999999999999990 1.0
 0.10000000000000003 0.50000000000000022 0.19999999999999990 1.0
 0.19999999999999996 0.50000000000000022 0.19999999999999990 1.0
 0.29999999999999993 0.50000000000000022 0.19999999999999990 1.0
 0.40000000000000013 0.50000000000000022 0.19999999999999990 1.0
 0.50000000000000022 0.50000000000000022 0.19999999999999990 1.0
 0.60000000000000031 0.50000000000000022 0.19999999999999990 1.0
 0.70000000000000029 0.50000000000000022 0.19999999999999990 1.0
 0.80000000000000027 0.50000000000000022 0.19999999999999990 1.0
 0.90000000000000013 0.50000000000000022 0.19999999999999990 1.0
 1.0000000000000000 0.50000000000000022 0.19999999999999990 1.0
 0.0000000000000000 0.60000000000000031 0.19999999999999990 1.0
 0.10000000000000003 0.60000000000000031 0.19999999999999990 1.0
 0.19999999999999996 0.60000000000000031 0.19999999999999990 1.0
 0.29999999999999993 0.60000000000000031 0.19999999999999990 1.0
 0.40000000000000013 0.60000000000000031 0.19999999999999990 1.0
 0.50000000000000022 0.60000000000000031 0.19999999999999990 1.0
 0.60000000000000031 0.60000000000000031 0.19999999999999990 1.0
 0.70000000000000029 0.60000000000000031 0.19999999999999990 1.0
 0.80000000000000027 0.60000000000000031 0.19999999999999990 1.0
 0.90000000000000036 0.60000000000000031 0.19999999999999990 1.0
 1.0000000000000000 0.60000000000000031 0.19999999999999990 1.0
 0.0000000000000000 0.70000000000000029 0.19999999999999990 1.0
 0.10000000000000001 0.70000000000000029 0.19999999999999990 1.0
 0.19999999999999993 0.70000000000000029 0.19999999999999990 1.0
 0.29999999999999993 0.70000000000000029 0.19999999999999990 1.0
 0.40000000000000002 0.70000000000000029 0.19999999999999990 1.0
 0.50000000000000022 0.70000000000000029 0.19999999999999990 1.0
 0.60000000000000031 0.70000000000000029 0.19999999999999990 1.0
 0.70000000000000029 0.70000000000000029 0.19999999999999990 1.0
 0.80000000000000004 0.70000000000000029 0.19999999999999990 1.0
 0.90000000000000013 0.70000000000000029 0.19999999999999990 1.0
 1.0000000000000000 0.70000000000000029 0.19999999999999990 1.0
 0.0000000000000000 0.80000000000000004 0.19999999999999990 1.0
 0.99999999999999992E-01 0.80000000000000004 0.19999999999999990 1.0
 0.19999999999999993 0.80000000000000004 0.19999999999999990 1.0
 0.29999999999999993 0.80000000000000004 0.19999999999999990 1.0
 0.39999999999999997 0.80000000000000004 0.19999999999999990 1.0
 0.50000000000000022 0.80000000000000004 0.19999999999999990 1.0
 0.60000000000000031 0.80000000000000004 0.19999999999999990 1.0
 0.70000000000000029 0.80000000000000004 0.19999999999999990 1.0
 0.79999999999999993 0.80000000000000004 0.19999999999999990 1.0
 0.90000000000000002 0.80000000000000004 0.19999999999999990 1.0
 1.0000000000000000 0.80000000000000004 0.19999999999999990 1.0
 0.0000000000000000 0.90000000000000002 0.19999999999999990 1.0
 0.10000000000000001 0.90000000000000002 0.19999999999999990 1.0
 0.19999999999999993 0.90000000000000002 0.19999999999999990 1.0