<?xml version="1.0"?>
<VTKFile type="UnstructuredGrid" version="0.1" byte_order="LittleEndian" compressor="vtkZLibDataCompressor">
  <UnstructuredGrid>
    <FieldData>
      <DataArray type="Float64" Name="TIME" NumberOfTuples="1" format="ascii" RangeMin="2.0964615747e-05" RangeMax="2.0964615747e-05">
        2.0964615747e-05
      </DataArray>
    </FieldData>
    <Piece NumberOfPoints="12" NumberOfCells="0">
      <PointData>
        <DataArray type="Float64" Name="ID" format="ascii" RangeMin="1" RangeMax="15">
          1 2 3 4 5 6
          7 8 9 10 14 15
        </DataArray>
        <DataArray type="Float64" Name="Type" format="ascii" RangeMin="0" RangeMax="7">
          0 7 0 7 0 7
          0 7 7 7 7 7
        </DataArray>
        <DataArray type="Float64" Name="Radius" NumberOfComponents="3" format="ascii" RangeMin="0.00021257704486" RangeMax="0.00059781351607">
          0.000247 0.000226 0.000154 0.000454 0.000328 0.000209
          0.000228 0.000173 9.4e-05 0.000188 0.000125 0.000102
          0.000137 0.000134 9.2e-05 0.000392 0.000233 0.000204
          0.000205 0.000184 0.000133 0.000454 0.000328 0.000209
          0.000454 0.000328 0.000209 0.000454 0.000328 0.000209
          0.000188 0.000125 0.000102 0.000392 0.000233 0.000204
        </DataArray>
        <DataArray type="Float64" Name="Axis a" NumberOfComponents="3" format="ascii" RangeMin="1.8486487493" RangeMax="3.7781442821">
          2.6773388752 1.1214320301 1.4620100068 1.859638 2.593846 2.021901
          1.7524199828 1.4251520137 0.23383339275 1.618349 0.461658 1.111977
          1.4706029848 0.73905483377 0.8417998647 1.828942 0.567075 2.063066
          1.8428117254 2.4878057036 2.1479434839 1.859638 2.593846 2.021901
          1.859638 2.593846 2.021901 1.859638 2.593846 2.021901
          1.618349 0.461658 1.111977 1.828942 0.567075 2.063066
        </DataArray>
        <DataArray type="Float64" Name="Axis b" NumberOfComponents="3" format="ascii" RangeMin="1.7970350163" RangeMax="3.3869176809">
          1.122424978 0.44975990544 1.6037580015 1.136191 1.269091 2.60018
          1.6861239963 0.20459715473 1.7390329945 0.241823 1.633609 1.337588
          2.5414799083 1.1200840304 1.9384279758 1.352562 1.016575 0.605381
          2.0314899599 0.92139477572 2.2927079275 1.136191 1.269091 2.60018
          1.136191 1.269091 2.60018 1.136191 1.269091 2.60018
          0.241823 1.633609 1.337588 1.352562 1.016575 0.605381
        </DataArray>
        <DataArray type="Float64" Name="Axis c" NumberOfComponents="3" format="ascii" RangeMin="2.4169324577" RangeMax="3.8071777134">
          1.6831230011 1.5531969998 3.0278840821 0.533267 2.012705 1.292403
          2.9257543284 1.7134640103 1.7316480117 1.333878 1.114096 2.618503
          2.160129234 2.1103802096 0.85854869785 0.341324 1.462995 1.893332
          0.54620614056 1.5057222359 2.1122271669 0.533267 2.012705 1.292403
          0.533267 2.012705 1.292403 0.533267 2.012705 1.292403
          1.333878 1.114096 2.618503 0.341324 1.462995 1.893332
        </DataArray>
        <DataArray type="Float64" Name="Ellipsoid" NumberOfComponents="9" format="ascii" RangeMin="0.00021257704486" RangeMax="0.00059781352495">
          0.00024188519312 -8.0146993791e-06 -1.0057018942e-05 -8.0146993791e-06 0.00022994035118 2.24927493e-06
          -1.0057018942e-05 2.24927493e-06 0.00015517445571 0.00024997522722 7.4465390826e-05 -1.2515340881e-05
          7.4465390826e-05 0.00039806421746 6.0880527938e-05 -1.2515340881e-05 6.0880527938e-05 0.00034296055373
          9.9418012016e-05 -1.2413946801e-05 -2.2023103849e-05 -1.2413946801e-05 0.00017256133816 5.9660227443e-06
          -2.2023103849e-05 5.9660227443e-06 0.00022302064982 0.00012387535013 -5.0617502324e-06 3.3501429971e-06
          -5.0617502324e-06 0.00017102739438 3.3767551901e-05 3.3501429971e-06 3.3767551901e-05 0.00012009733904
          0.00012105532285 -1.1772166141e-05 1.5455609275e-05 -1.1772166141e-05 0.00012455202959 1.5579594453e-05
          1.5455609275e-05 1.5579594453e-05 0.00011739264757 0.0002176115926 -3.7177626037e-05 2.7845990201e-05
          -3.7177626037e-05 0.00034578498477 -6.2396319074e-05 2.7845990201e-05 -6.2396319074e-05 0.00026560349648
          0.00014827709093 1.6447960705e-06 2.5537876623e-05 1.6447960705e-06 0.00019701625241 1.0804653877e-05
          2.5537876623e-05 1.0804653877e-05 0.00017670665666 0.00024997522722 7.4465390826e-05 -1.2515340881e-05
          7.4465390826e-05 0.00039806421746 6.0880527938e-05 -1.2515340881e-05 6.0880527938e-05 0.00034296055373
          0.00024997522722 7.4465390826e-05 -1.2515340881e-05 7.4465390826e-05 0.00039806421746 6.0880527938e-05
          -1.2515340881e-05 6.0880527938e-05 0.00034296055373 0.00024997522722 7.4465390826e-05 -1.2515340881e-05
          7.4465390826e-05 0.00039806421746 6.0880527938e-05 -1.2515340881e-05 6.0880527938e-05 0.00034296055373
          0.00012387535013 -5.0617502324e-06 3.3501429971e-06 -5.0617502324e-06 0.00017102739438 3.3767551901e-05
          3.3501429971e-06 3.3767551901e-05 0.00012009733904 0.0002176115926 -3.7177626037e-05 2.7845990201e-05
          -3.7177626037e-05 0.00034578498477 -6.2396319074e-05 2.7845990201e-05 -6.2396319074e-05 0.00026560349648
        </DataArray>
        <DataArray type="Float64" Name="Velocity" NumberOfComponents="3" format="ascii" RangeMin="0" RangeMax="5.6222193769e-07">
          0 0 -5.6222193769e-07 0 0 0
          0 0 -5.6222193769e-07 0 0 0
          0 0 -5.6222193769e-07 0 0 0
          -2.5157614666e-167 1.553732492e-168 -5.6222193769e-07 0 0 0
          0 0 0 0 0 0
          0 0 0 0 0 0
        </DataArray>
        <DataArray type="Float64" Name="Omega" NumberOfComponents="3" format="ascii" RangeMin="0" RangeMax="0">
          0 0 0 0 0 0
          0 0 0 0 0 0
          0 0 0 0 0 0
          -4.2776817612e-163 -7.027700891e-164 -2.1377715988e-163 0 0 0
          0 0 0 0 0 0
          0 0 0 0 0 0
        </DataArray>
        <DataArray type="Float64" Name="Force" NumberOfComponents="3" format="ascii" RangeMin="1.8372732495e-07" RangeMax="3.3856069817e-06">
          0 0 -9.3516161473e-07 0 0 -3.3856069817e-06
          0 0 -4.0333820636e-07 0 0 -2.6075256724e-07
          0 0 -1.8372732495e-07 0 0 -2.0269018282e-06
          0 0 -5.4573760919e-07 0 0 -3.3856069817e-06
          0 0 -3.3856069817e-06 0 0 -3.3856069817e-06
          0 0 -2.6075256724e-07 0 0 -2.0269018282e-06
        </DataArray>
        <DataArray type="Float64" Name="Moment" NumberOfComponents="3" format="ascii" RangeMin="0" RangeMax="0">
          0 0 0 0 0 0
          0 0 0 0 0 0
          0 0 0 0 0 0
          0 0 0 0 0 0
          0 0 0 0 0 0
          0 0 0 0 0 0
        </DataArray>
      </PointData>
      <CellData>
      </CellData>
      <Points>
        <DataArray type="Float32" Name="Points" NumberOfComponents="3" format="ascii" RangeMin="0.00035273416152" RangeMax="0.0042363922284">
          -0.0011840000516 -0.00072100001853 0.00019899998733 -0.00020771491108 -0.0013180000242 0.00019700000121
          0.00037600001087 -0.00085700000636 0.0025770000648 0.00049880077131 -0.0014019999653 0.0028089999687
          -0.00064099999145 -0.00051599997096 0.00018399997498 0.00025531233405 0.00024100000155 3.4000000596e-05
          0.00015015224926 0.00020105236035 0.00041558759403 -0.00020771491108 0.002136999974 0.00019700000121
          -0.00020771491108 -0.0013180000242 0.0036520001013 -0.00020771491108 0.002136999974 0.0036520001013
          0.00049880077131 0.0020530000329 0.0028089999687 0.00025531233405 0.00024100000155 0.0034880000167
        </DataArray>
      </Points>
      <Cells>
        <DataArray type="Int64" Name="connectivity" format="ascii" RangeMin="1e+299" RangeMax="-1e+299">
        </DataArray>
        <DataArray type="Int64" Name="offsets" format="ascii" RangeMin="1e+299" RangeMax="-1e+299">
        </DataArray>
        <DataArray type="UInt8" Name="types" format="ascii" RangeMin="1e+299" RangeMax="-1e+299">
        </DataArray>
      </Cells>
    </Piece>
  </UnstructuredGrid>
</VTKFile>
