<?xml version="1.0"?>
<VTKFile type="UnstructuredGrid" version="0.1" byte_order="LittleEndian" compressor="vtkZLibDataCompressor">
  <UnstructuredGrid>
    <FieldData>
      <DataArray type="Float64" Name="TIME" NumberOfTuples="1" format="ascii" RangeMin="0.47907868533" RangeMax="0.47907868533">
        0.47907868533
      </DataArray>
    </FieldData>
    <Piece NumberOfPoints="1000" NumberOfCells="0">
      <PointData>
        <DataArray type="Float64" Name="Damage" format="ascii" RangeMin="0" RangeMax="0.49719101124">
          0 0 0 0 0 0
          0 0 0 0 0 0.027932960894
          0 0 0 0 0 0
          0.027932960894 0 0 0.055084745763 0.071428571429 0.040345821326
          0.014164305949 0.012987012987 0.040345821326 0.071428571429 0.055084745763 0
          0 0.067669172932 0.11239193084 0.1074168798 0.037688442211 0.034562211982
          0.1074168798 0.11239193084 0.067669172932 0 0 0.074349442379
          0.16147308782 0.16834170854 0.12376237624 0.11286681716 0.16834170854 0.16147308782
          0.074349442379 0 0 0.084459459459 0.2 0.25806451613
          0.33860045147 0.39211618257 0.25806451613 0.2 0.084459459459 0
          0 0.093984962406 0.25360230548 0.36061381074 0.41959798995 0.46774193548
          0.36061381074 0.25360230548 0.093984962406 0 0 0.10593220339
          0.31493506494 0.40057636888 0.4447592068 0.49090909091 0.40057636888 0.31493506494
          0.10593220339 0 0 0.16759776536 0.3686440678 0.43984962406
          0.44609665428 0.49662162162 0.43984962406 0.3686440678 0.16759776536 0
          0 0.1677852349 0.36734693878 0.43891402715 0.44642857143 0.49593495935
          0.43891402715 0.36734693878 0.1677852349 0 0 0
          0 0 0 0 0 0
          0 0 0 0.027906976744 0 0
          0 0 0 0 0.027906976744 0
          0 0.056338028169 0.072776280323 0.040669856459 0.014117647059 0.012931034483
          0.040669856459 0.072776280323 0.056338028169 0 0 0.06875
          0.11483253589 0.10828025478 0.0375782881 0.034416826004 0.10828025478 0.11483253589
          0.06875 0 0 0.074303405573 0.16235294118 0.16910229645
          0.12371134021 0.11257035647 0.16910229645 0.16235294118 0.074303405573 0
          0 0.084269662921 0.20043103448 0.25812619503 0.33771106942 0.39242685026
          0.25812619503 0.20043103448 0.084269662921 0 0 0.09375
          0.25358851675 0.36093418259 0.41962421712 0.46845124283 0.36093418259 0.25358851675
          0.09375 0 0 0.10563380282 0.3153638814 0.4019138756
          0.44470588235 0.49137931034 0.4019138756 0.3153638814 0.10563380282 0
          0 0.16744186047 0.36971830986 0.440625 0.44582043344 0.49719101124
          0.440625 0.36971830986 0.16744186047 0 0 0.16759776536
          0.3686440678 0.43984962406 0.44609665428 0.49662162162 0.43984962406 0.3686440678
          0.16759776536 0 0 0 0 0
          0 0 0 0 0 0
          0 0.024647887324 0 0 0 0
          0 0 0.024647887324 0 0 0.051212938005
          0.06875 0.038817005545 0.012635379061 0.011666666667 0.038817005545 0.06875
          0.051212938005 0 0 0.064593301435 0.10905730129 0.10491803279
          0.036858974359 0.034023668639 0.10491803279 0.10905730129 0.064593301435 0
          0 0.070588235294 0.15523465704 0.16506410256 0.12283464567 0.11271676301
          0.16506410256 0.15523465704 0.070588235294 0 0 0.081896551724
          0.19333333333 0.25443786982 0.33959537572 0.38985313752 0.25443786982 0.19333333333
          0.081896551724 0 0 0.093301435407 0.24768946396 0.35573770492
          0.41987179487 0.46449704142 0.35573770492 0.24768946396 0.093301435407 0
          0 0.10781671159 0.30833333333 0.39556377079 0.4440433213 0.48666666667
          0.39556377079 0.30833333333 0.10781671159 0 0 0.16197183099
          0.35579514825 0.43062200957 0.44470588235 0.49137931034 0.43062200957 0.35579514825
          0.16197183099 0 0 0.16101694915 0.3538961039 0.42939481268
          0.4447592068 0.49090909091 0.42939481268 0.3538961039 0.16101694915 0
          0 0 0 0 0 0
          0 0 0 0 0 0.025
          0 0 0 0 0 0
          0.025 0 0 0.05023923445 0.068391866913 0.039344262295
          0.012820512821 0.011834319527 0.039344262295 0.068391866913 0.05023923445 0
          0 0.063694267516 0.10819672131 0.10465116279 0.036984352774 0.034120734908
          0.10465116279 0.10819672131 0.063694267516 0 0 0.070981210856
          0.15544871795 0.16500711238 0.12290502793 0.11282051282 0.16500711238 0.15544871795
          0.070981210856 0 0 0.082217973231 0.19378698225 0.25459317585
          0.33974358974 0.38981042654 0.25459317585 0.19378698225 0.082217973231 0
          0 0.093418259023 0.24918032787 0.35610465116 0.41963015647 0.46456692913
          0.35610465116 0.24918032787 0.093418259023 0 0 0.10765550239
          0.30868761553 0.39508196721 0.44391025641 0.48668639053 0.39508196721 0.30868761553
          0.10765550239 0 0 0.1625 0.35645933014 0.43099787686
          0.44467640919 0.4913957935 0.43099787686 0.35645933014 0.1625 0
          0 0.16165413534 0.35446685879 0.42966751918 0.44472361809 0.49078341014
          0.42966751918 0.35446685879 0.16165413534 0 0 0
          0 0 0 0 0 0
          0 0 0 0.02786377709 0 0
          0 0 0 0 0.02786377709 0
          0 0.054117647059 0.070397111913 0.040064102564 0.014173228346 0.013005780347
          0.040064102564 0.070397111913 0.054117647059 0 0 0.066805845511
          0.11057692308 0.106685633 0.037709497207 0.034615384615 0.106685633 0.11057692308
          0.066805845511 0 0 0.074226804124 0.16062992126 0.16759776536
          0.12362637363 0.11292346299 0.16759776536 0.16062992126 0.074226804124 0
          0 0.084427767355 0.19942196532 0.25769230769 0.33877038896 0.39145496536
          0.25769230769 0.19942196532 0.084427767355 0 0 0.093945720251
          0.25320512821 0.35988620199 0.41899441341 0.46666666667 0.35988620199 0.25320512821
          0.093945720251 0 0 0.10588235294 0.31407942238 0.39903846154
          0.44409448819 0.48988439306 0.39903846154 0.31407942238 0.10588235294 0
          0 0.16718266254 0.36705882353 0.43841336117 0.44536082474 0.49530956848
          0.43841336117 0.36705882353 0.16718266254 0 0 0.16728624535
          0.36543909348 0.43718592965 0.44554455446 0.49435665914 0.43718592965 0.36543909348
          0.16728624535 0 0 0 0 0
          0 0 0 0 0 0
          0 0.025280898876 0 0 0 0
          0 0 0.025280898876 0 0 0.049568965517
          0.066666666667 0.038461538462 0.013005780347 0.012016021362 0.038461538462 0.066666666667
          0.049568965517 0 0 0.06309751434 0.1050295858 0.10367454068
          0.037179487179 0.034360189573 0.10367454068 0.1050295858 0.06309751434 0
          0 0.071294559099 0.15462427746 0.1641025641 0.12296110414 0.11316397229
          0.1641025641 0.15462427746 0.071294559099 0 0 0.082616179002
          0.19359145527 0.25473933649 0.34064665127 0.38930481283 0.25473933649 0.19359145527
          0.082616179002 0 0 0.093690248566 0.24852071006 0.35564304462
          0.41923076923 0.46327014218 0.35564304462 0.24852071006 0.093690248566 0
          0 0.10775862069 0.30833333333 0.39349112426 0.4436416185 0.48598130841
          0.39349112426 0.30833333333 0.10775862069 0 0 0.16292134831
          0.35560344828 0.43021032505 0.44465290807 0.49053356282 0.43021032505 0.35560344828
          0.16292134831 0 0 0.16216216216 0.35324675325 0.42857142857
          0.44469525959 0.48962655602 0.42857142857 0.35324675325 0.16216216216 0
          0 0 0 0 0 0
          0 0 0 0 0 0.025
          0 0 0 0 0 0
          0.025 0 0 0.05023923445 0.068391866913 0.039344262295
          0.012820512821 0.011834319527 0.039344262295 0.068391866913 0.05023923445 0
          0 0.063694267516 0.10819672131 0.10465116279 0.036984352774 0.034120734908
          0.10465116279 0.10819672131 0.063694267516 0 0 0.070981210856
          0.15544871795 0.16500711238 0.12290502793 0.11282051282 0.16500711238 0.15544871795
          0.070981210856 0 0 0.082217973231 0.19378698225 0.25459317585
          0.33974358974 0.38981042654 0.25459317585 0.19378698225 0.082217973231 0
          0 0.093418259023 0.24918032787 0.35610465116 0.41963015647 0.46456692913
          0.35610465116 0.24918032787 0.093418259023 0 0 0.10765550239
          0.30868761553 0.39508196721 0.44391025641 0.48668639053 0.39508196721 0.30868761553
          0.10765550239 0 0 0.1625 0.35645933014 0.43099787686
          0.44467640919 0.4913957935 0.43099787686 0.35645933014 0.1625 0
          0 0.16165413534 0.35446685879 0.42966751918 0.44472361809 0.49078341014
          0.42966751918 0.35446685879 0.16165413534 0 0 0
          0 0 0 0 0 0
          0 0 0 0.024647887324 0 0
          0 0 0 0 0.024647887324 0
          0 0.051212938005 0.06875 0.038817005545 0.012635379061 0.011666666667
          0.038817005545 0.06875 0.051212938005 0 0 0.064593301435
          0.10905730129 0.10491803279 0.036858974359 0.034023668639 0.10491803279 0.10905730129
          0.064593301435 0 0 0.070588235294 0.15523465704 0.16506410256
          0.12283464567 0.11271676301 0.16506410256 0.15523465704 0.070588235294 0
          0 0.081896551724 0.19333333333 0.25443786982 0.33959537572 0.38985313752
          0.25443786982 0.19333333333 0.081896551724 0 0 0.093301435407
          0.24768946396 0.35573770492 0.41987179487 0.46449704142 0.35573770492 0.24768946396
          0.093301435407 0 0 0.10781671159 0.30833333333 0.39556377079
          0.4440433213 0.48666666667 0.39556377079 0.30833333333 0.10781671159 0
          0 0.16197183099 0.35579514825 0.43062200957 0.44470588235 0.49137931034
          0.43062200957 0.35579514825 0.16197183099 0 0 0.16101694915
          0.3538961039 0.42939481268 0.4447592068 0.49090909091 0.42939481268 0.3538961039
          0.16101694915 0 0 0 0 0
          0 0 0 0 0 0
          0 0.027906976744 0 0 0 0
          0 0 0.027906976744 0 0 0.056338028169
          0.072776280323 0.040669856459 0.014117647059 0.012931034483 0.040669856459 0.072776280323
          0.056338028169 0 0 0.06875 0.11483253589 0.10828025478
          0.0375782881 0.034416826004 0.10828025478 0.11483253589 0.06875 0
          0 0.074303405573 0.16235294118 0.16910229645 0.12371134021 0.11257035647
          0.16910229645 0.16235294118 0.074303405573 0 0 0.084269662921
          0.20043103448 0.25812619503 0.33771106942 0.39242685026 0.25812619503 0.20043103448
          0.084269662921 0 0 0.09375 0.25358851675 0.36093418259
          0.41962421712 0.46845124283 0.36093418259 0.25358851675 0.09375 0
          0 0.10563380282 0.3153638814 0.4019138756 0.44470588235 0.49137931034
          0.4019138756 0.3153638814 0.10563380282 0 0 0.16744186047
          0.36971830986 0.440625 0.44582043344 0.49719101124 0.440625 0.36971830986
          0.16744186047 0 0 0.16759776536 0.3686440678 0.43984962406
          0.44609665428 0.49662162162 0.43984962406 0.3686440678 0.16759776536 0
          0 0 0 0 0 0
          0 0 0 0 0 0.027932960894
          0 0 0 0 0 0
          0.027932960894 0 0 0.055084745763 0.071428571429 0.040345821326
          0.014164305949 0.012987012987 0.040345821326 0.071428571429 0.055084745763 0
          0 0.067669172932 0.11239193084 0.1074168798 0.037688442211 0.034562211982
          0.1074168798 0.11239193084 0.067669172932 0 0 0.074349442379
          0.16147308782 0.16834170854 0.12376237624 0.11286681716 0.16834170854 0.16147308782
          0.074349442379 0 0 0.084459459459 0.2 0.25806451613
          0.33860045147 0.39211618257 0.25806451613 0.2 0.084459459459 0
          0 0.093984962406 0.25360230548 0.36061381074 0.41959798995 0.46774193548
          0.36061381074 0.25360230548 0.093984962406 0 0 0.10593220339
          0.31493506494 0.40057636888 0.4447592068 0.49090909091 0.40057636888 0.31493506494
          0.10593220339 0 0 0.16759776536 0.3686440678 0.43984962406
          0.44609665428 0.49662162162 0.43984962406 0.3686440678 0.16759776536 0
          0 0.1677852349 0.36734693878 0.43891402715 0.44642857143 0.49593495935
          0.43891402715 0.36734693878 0.1677852349 0
        </DataArray>
        <DataArray type="Float64" Name="Displacement" NumberOfComponents="3" format="ascii" RangeMin="0.52901480214" RangeMax="0.55798552202">
          -0.026423560334 -0.53563651516 -0.067618607534 -0.025462796659 -0.5375940899 -0.069791812859
          -0.02678311423 -0.53884323756 -0.070748864997 -0.027087433094 -0.5392617331 -0.070841809747
          -0.026328458447 -0.53934620647 -0.072176677345 -0.026172794496 -0.54215346133 -0.0710059302
          -0.025209476514 -0.54287320787 -0.070924819898 -0.025564300884 -0.54478029828 -0.070245617716
          -0.027202803931 -0.54592253634 -0.069394597339 -0.025918482567 -0.54569106075 -0.067430904288
          -0.021335523561 -0.53700941623 -0.074221166784 -0.024299232439 -0.53892029931 -0.071400758328
          -0.025600074055 -0.53800067848 -0.072140674549 -0.024911170162 -0.54162896754 -0.070795420755
          -0.025407350754 -0.54214472534 -0.070500776928 -0.025447218843 -0.5434229034 -0.07040851209
          -0.025338602183 -0.54485824659 -0.070173732578 -0.024774675495 -0.54331423489 -0.071894262241
          -0.026012725595 -0.54667366454 -0.071354768629 -0.028765165744 -0.54734664329 -0.073817327632
          -0.023548689326 -0.5368779148 -0.073071649193 -0.023718907596 -0.53770380178 -0.072228239742
          -0.024166361753 -0.53893334502 -0.073319302636 -0.024585124293 -0.5407365709 -0.071946275239
          -0.024075004181 -0.54134755052 -0.072754996229 -0.023703583342 -0.54281083836 -0.072754525959
          -0.023690568289 -0.5443793644 -0.071804853632 -0.024047244944 -0.54481332776 -0.073115537592
          -0.023753268375 -0.5459924742 -0.072292044058 -0.024472134339 -0.5474245761 -0.07274624663
          -0.026202825778 -0.53733620424 -0.071257504089 -0.023223224981 -0.5377211118 -0.073563529108
          -0.022931550115 -0.53868318127 -0.074728714021 -0.022607866974 -0.53990224804 -0.074904929815
          -0.022519414507 -0.54057512013 -0.074611037362 -0.022964163519 -0.54256091645 -0.073963855396
          -0.022321617726 -0.54429561509 -0.074059967869 -0.022751377231 -0.54461198358 -0.074436982659
          -0.022211922861 -0.54595522691 -0.073435225514 -0.01956933943 -0.54771673176 -0.070679000847
          -0.02074587394 -0.53746390223 -0.076857515488 -0.021841150284 -0.53798147616 -0.076750129969
          -0.02182806644 -0.53948769031 -0.075364781355 -0.021550382639 -0.54022151994 -0.075539472905
          -0.020861039177 -0.54022433086 -0.074696690048 -0.021823654495 -0.54207417101 -0.074951366153
          -0.02232963665 -0.5435707143 -0.075322255398 -0.021691689053 -0.54550044847 -0.075083709308
          -0.021483242491 -0.5464511581 -0.07623383419 -0.022753198801 -0.5477659824 -0.076456730384
          -0.021185382197 -0.53639570753 -0.076316643795 -0.020836510628 -0.53812814733 -0.076929702428
          -0.019580212065 -0.53877838217 -0.077203448457 -0.020817200719 -0.53999659591 -0.07673940081
          -0.022281264895 -0.54209932752 -0.078246301603 -0.018925658108 -0.54291443784 -0.078399407469
          -0.020413070927 -0.54358906333 -0.076511766512 -0.02157840753 -0.54474055059 -0.076963356753
          -0.020121417577 -0.54626933609 -0.076318101978 -0.019903005909 -0.54663653934 -0.075943104104
          -0.023100363254 -0.53766575666 -0.07605203603 -0.020885666096 -0.53892657555 -0.077700256929
          -0.021054124355 -0.54023757077 -0.078964535358 -0.022003666608 -0.54118227614 -0.08085820538
          -0.02123578568 -0.53999022378 -0.078004633808 -0.017241478578 -0.54128368141 -0.078078531411
          -0.016590709284 -0.54458284593 -0.080849558394 -0.01782188736 -0.54606984587 -0.078655758591
          -0.017717830668 -0.54675073889 -0.07737862807 -0.015887754393 -0.54810731488 -0.07559964294
          -0.019694262683 -0.53749292488 -0.079373867525 -0.019468757273 -0.53814436082 -0.079762719599
          -0.019658192592 -0.53915447469 -0.079436380795 -0.020183872433 -0.54010648314 -0.080085890012
          -0.01891881225 -0.54211797649 -0.08055395876 -0.017842708877 -0.54335132567 -0.08049144652
          -0.016865615321 -0.54345193545 -0.079880432096 -0.017222411492 -0.54489578396 -0.07927143214
          -0.016875474642 -0.54637478973 -0.079446661577 -0.016615094585 -0.54815806812 -0.078925416409
          -0.019512191071 -0.53880356365 -0.079705609064 -0.021541316138 -0.53849659928 -0.079186363776
          -0.019390691443 -0.53931456488 -0.080871719329 -0.019195382976 -0.54040654146 -0.081327251428
          -0.018520211384 -0.54110401666 -0.079312234638 -0.016434783931 -0.54203948282 -0.079687500812
          -0.015055010269 -0.54364375646 -0.080952543871 -0.014588010545 -0.54450337377 -0.080377595852
          -0.012444512923 -0.54691131643 -0.078990856209 -0.014850706301 -0.54906122227 -0.079509545896
          -0.016996753482 -0.53635401882 -0.080730777986 -0.01578203988 -0.54123593584 -0.087989233825
          -0.018572124503 -0.54068958588 -0.083432208091 -0.016907998306 -0.54702323782 -0.088404379633
          -0.017243300831 -0.53989782113 -0.080015757025 -0.014415757144 -0.540903244 -0.079974815028
          -0.015171245731 -0.55074171918 -0.088324599287 -0.013525121943 -0.54659609861 -0.083087438473
          -0.016171952873 -0.54950506471 -0.087749928164 -0.015387415417 -0.54640381859 -0.080185311362
          -0.027356558001 -0.53446290458 -0.070774761781 -0.028619008642 -0.53442203821 -0.070779569211
          -0.02722930921 -0.53868772243 -0.069383624369 -0.026234949215 -0.53975986792 -0.069825810796
          -0.026288679434 -0.54101570105 -0.069410097227 -0.026283151137 -0.54197213338 -0.069528153137
          -0.026343446293 -0.54290637506 -0.069526388054 -0.025520413384 -0.54416447221 -0.068915577866
          -0.023790656269 -0.54240191229 -0.070399687978 -0.025171923693 -0.54507996456 -0.070482923481
          -0.025565397388 -0.53640382989 -0.069992226117 -0.025764895141 -0.53580998395 -0.071646927956
          -0.025259880516 -0.53810475486 -0.071391829929 -0.024991650619 -0.53915374985 -0.071395421177
          -0.025323106894 -0.5396798145 -0.071830407988 -0.025323696341 -0.54166114669 -0.071061326364
          -0.025287009737 -0.54228192844 -0.071334339021 -0.025137234566 -0.54358782602 -0.071059586336
          -0.024560990208 -0.5437462284 -0.071392945098 -0.024838009543 -0.54677038593 -0.069775613705
          -0.022957082628 -0.5346690907 -0.07500122605 -0.024012109328 -0.53694214362 -0.072680711787
          -0.023977719435 -0.53776238653 -0.073129599575 -0.024012462338 -0.53874810767 -0.073037324066
          -0.02400496413 -0.53980322733 -0.07311727986 -0.024134655315 -0.54116070667 -0.072861020058
          -0.024251313604 -0.54210076609 -0.07310754892 -0.024332986205 -0.54338770556 -0.073185508585
          -0.024020257557 -0.54506978598 -0.072416656782 -0.02491835774 -0.54492617975 -0.074536369662
          -0.023364471142 -0.53510214653 -0.07449747894 -0.023384654882 -0.53680170208 -0.073840502329
          -0.022685569281 -0.53767664992 -0.074911135759 -0.022926989593 -0.5389508574 -0.074316222688
          -0.022902080479 -0.53988583795 -0.074419528481 -0.022882693047 -0.54109668439 -0.074173841591
          -0.022995067971 -0.54231969853 -0.074135895678 -0.023114142492 -0.54333436978 -0.074775173426
          -0.022390468504 -0.5448502162 -0.073536683005 -0.022397945717 -0.5455564637 -0.073979807783
          -0.021501349232 -0.53511573814 -0.076766399667 -0.022292147291 -0.5369630879 -0.075390485614
          -0.021956908813 -0.53782555437 -0.075660814109 -0.021588646775 -0.53869917709 -0.075533368977
          -0.021748023278 -0.53992514948 -0.075633129986 -0.021898125537 -0.5408483528 -0.075520122916
          -0.021868674888 -0.54217897955 -0.07523282245 -0.021621843481 -0.54348486917 -0.075490729264
          -0.021010646277 -0.54489020918 -0.075045699702 -0.021987122332 -0.54517172704 -0.076230653847
          -0.021180096374 -0.53531070803 -0.077070605776 -0.021272855034 -0.53722420824 -0.076838545976
          -0.020724573722 -0.53771871213 -0.07680350928 -0.020800389093 -0.53893815658 -0.077283411709
          -0.021435598806 -0.54019339817 -0.077829955269 -0.019769585976 -0.54130048975 -0.07788971575
          -0.020616811744 -0.54236849381 -0.077294049643 -0.020699011721 -0.54347291314 -0.076758226845
          -0.019926940203 -0.54498186849 -0.076344039857 -0.020131142077 -0.54551907437 -0.076373037645
          -0.019987076174 -0.53600665951 -0.0788242834 -0.020349750912 -0.53701799509 -0.077888863587
          -0.019721101404 -0.5378971421 -0.078812933885 -0.019353839571 -0.53878309102 -0.078731825056
          -0.020566115685 -0.54024998263 -0.079682178199 -0.018279837396 -0.54113591978 -0.079621688851
          -0.019320563216 -0.54228396237 -0.078640415704 -0.019329214902 -0.54364621237 -0.078497467452
          -0.018484592129 -0.54506924459 -0.077610963835 -0.018821445964 -0.5464451616 -0.078340226757
          -0.020882013097 -0.53649915926 -0.078527873843 -0.019576592333 -0.53690461384 -0.079779801664
          -0.019595116096 -0.53833718735 -0.080634050006 -0.019148739161 -0.53948433024 -0.080132607988
          -0.019325909036 -0.53961054907 -0.079867887162 -0.017405081311 -0.5409169603 -0.079709652052
          -0.01736642105 -0.54312142857 -0.08006298938 -0.017219461504 -0.54404639281 -0.0804558794
          -0.017131897282 -0.54508048301 -0.079461771954 -0.015596351827 -0.54687878972 -0.078069974646
          -0.019601082464 -0.53789882898 -0.080643864148 -0.019647338386 -0.53818521146 -0.080832981661
          -0.018374971959 -0.53774128834 -0.080794673217 -0.017961082943 -0.53909017483 -0.081055999866
          -0.018323475685 -0.53903634974 -0.081171106272 -0.016144015646 -0.54033851811 -0.081284084367
          -0.016370500533 -0.54258433698 -0.081103733731 -0.015972173958 -0.54358625195 -0.080789218997
          -0.014749971044 -0.54639722801 -0.080748783504 -0.014624194846 -0.54815820094 -0.080056683751
          -0.017494732968 -0.53587890293 -0.08441971031 -0.017315830728 -0.53790254404 -0.085863401061
          -0.015007482688 -0.53797166917 -0.083624013259 -0.01601990542 -0.53829586192 -0.081339973478
          -0.017933824959 -0.53863950244 -0.083924126512 -0.013619314262 -0.53990872735 -0.083560429319
          -0.016433829825 -0.5417353237 -0.081140750262 -0.017076606385 -0.54339090867 -0.082998646556
          -0.014631915488 -0.54584764177 -0.085240002815 -0.014299895839 -0.54647195134 -0.084204153858
          -0.027705782132 -0.53321444104 -0.071036556079 -0.026598923281 -0.53479372883 -0.071204807807
          -0.026202833767 -0.53676848136 -0.070386827045 -0.026533949886 -0.53790625403 -0.069898594949
          -0.026320016375 -0.53949991926 -0.069624299531 -0.026779589783 -0.54003387189 -0.070190161001
          -0.026122532453 -0.54131025258 -0.06955893512 -0.026618047657 -0.54256325368 -0.070168850464
          -0.02630336094 -0.54285891295 -0.070879994489 -0.024733904712 -0.54346791063 -0.070689316578
          -0.025229668438 -0.53353770416 -0.071185994792 -0.024597631223 -0.53530671472 -0.071851068371
          -0.024877939596 -0.53686993473 -0.071575581441 -0.025264922182 -0.5373470777 -0.071721156461
          -0.025216537708 -0.53863343803 -0.071710178207 -0.025246943426 -0.5399471372 -0.071462039617
          -0.025204671306 -0.54071558367 -0.071614264576 -0.025505393415 -0.54238697207 -0.071402372433
          -0.025746115153 -0.54340621298 -0.071682929083 -0.024861341291 -0.5437169209 -0.070901614031
          -0.023839488791 -0.53444845521 -0.073235059764 -0.024201382203 -0.53498162859 -0.073212469636
          -0.023983488262 -0.53645216262 -0.073117693375 -0.023963934443 -0.5375005291 -0.073036969875
          -0.024052017618 -0.53846699829 -0.073061051799 -0.023909923122 -0.53975589476 -0.073141439695
          -0.024183137468 -0.54098190567 -0.072880226335 -0.024248995783 -0.54214508349 -0.072999128543
          -0.024042298683 -0.54308310625 -0.072921792862 -0.024311910196 -0.54473467261 -0.07295021892
          -0.023214886504 -0.53410606019 -0.074670849569 -0.022640690122 -0.53543944537 -0.074685515531
          -0.022753980672 -0.53643651977 -0.074567541683 -0.022850173619 -0.53756590159 -0.074391431668
          -0.022912067088 -0.53864554733 -0.074472921465 -0.023032741362 -0.539755531 -0.074566196649
          -0.0229393977 -0.54092485817 -0.074191722622 -0.02306696566 -0.54217352354 -0.074343325855
          -0.023219877844 -0.54349828894 -0.074470989297 -0.022652176898 -0.54447976725 -0.074253885504
          -0.022687286982 -0.53461736854 -0.0751397316 -0.022134573336 -0.53559735274 -0.075607308523
          -0.022081118426 -0.53660231403 -0.075646969578 -0.021807738862 -0.53745565559 -0.075695423081
          -0.021750093678 -0.53848451221 -0.075687746068 -0.021807304787 -0.53961454383 -0.075677550471
          -0.021742194936 -0.54094568354 -0.075588403966 -0.021403732469 -0.54237976496 -0.075458816785
          -0.021604754649 -0.54365143764 -0.07543137341 -0.020774124041 -0.54490292107 -0.074663568168
          -0.020564570876 -0.53375734127 -0.077434875642 -0.020805737354 -0.53553462457 -0.077177199474
          -0.021002229046 -0.53652704637 -0.07710762681 -0.021420110899 -0.53773614375 -0.077254227362
          -0.020597010567 -0.53850309643 -0.077054993239 -0.02069992123 -0.53966491015 -0.07696112031
          -0.019909938017 -0.54119445982 -0.077080536247 -0.020274069833 -0.54228296015 -0.076907739959
          -0.02061324377 -0.54350244912 -0.076950803038 -0.020642256871 -0.54419116423 -0.077132060104
          -0.020279883624 -0.53508506613 -0.078645841748 -0.019877632758 -0.53550652679 -0.078512750526
          -0.01986769594 -0.53664289919 -0.078667722125 -0.020115913032 -0.53756647578 -0.07846949289
          -0.019499147312 -0.53876895114 -0.078436934149 -0.019420175667 -0.53984623056 -0.078286650501
          -0.018672927504 -0.54106805709 -0.078359477963 -0.018988314007 -0.54236820419 -0.078417973366
          -0.019000994593 -0.54350739788 -0.078173124709 -0.018707567518 -0.54546436979 -0.078351987687
          -0.019040429526 -0.53466519072 -0.080142240526 -0.019236479081 -0.53576906082 -0.080010039189
          -0.018518029961 -0.53647015214 -0.080125645501 -0.018853010708 -0.53719641138 -0.079510793563
          -0.019078018385 -0.53875861626 -0.080359068611 -0.017548401069 -0.53985651643 -0.080222050149
          -0.017810588762 -0.54068980745 -0.079443057981 -0.018215846801 -0.5425494758 -0.080291954549
          -0.017324478744 -0.54383608077 -0.079668092352 -0.017605247402 -0.54492979879 -0.079792945706
          -0.018875963279 -0.53441099794 -0.080257139506 -0.018321485321 -0.53551339361 -0.081327928245
          -0.018266575725 -0.53646484551 -0.081489799597 -0.018102033002 -0.53797507868 -0.081784733462
          -0.017399662975 -0.53852919698 -0.080816255488 -0.01684480802 -0.53963808606 -0.080766621802
          -0.016205327193 -0.54150876647 -0.08156591771 -0.016102381426 -0.5424741678 -0.081164871401
          -0.016057433549 -0.54375706529 -0.081038568456 -0.01578684532 -0.54459594884 -0.079894956822
          -0.012523064383 -0.53110881464 -0.084179316405 -0.012543749743 -0.53282699779 -0.082769039971
          -0.016561956792 -0.53687961148 -0.082021895765 -0.019979899766 -0.53704470105 -0.083426780929
          -0.013070826526 -0.54190695715 -0.081821871185 -0.01906736578 -0.54284129084 -0.0817632644
          -0.012027427811 -0.54050020738 -0.083362542543 -0.015391120824 -0.54267892167 -0.081983012007
          -0.019525289588 -0.54065688609 -0.082632576764 -0.019593299325 -0.5412293714 -0.083966378859
          -0.027120798203 -0.53215169753 -0.070584750444 -0.025809953105 -0.53428963766 -0.070714188904
          -0.027871181353 -0.5340387925 -0.070537181547 -0.026424184943 -0.53600981155 -0.07086874576
          -0.026435283192 -0.53740448131 -0.070329078976 -0.02615320358 -0.53849654483 -0.070392154857
          -0.026284469178 -0.53928230312 -0.070825411601 -0.024855806587 -0.53987419671 -0.070227918017
          -0.026574116876 -0.54210882233 -0.070351717934 -0.025571478818 -0.54251310377 -0.070283698396
          -0.024810754989 -0.53283852336 -0.071355787099 -0.024995364648 -0.53409609712 -0.07160797309
          -0.025256253383 -0.5349268733 -0.071611501494 -0.025166088187 -0.53630938276 -0.071703060429
          -0.02518932863 -0.5375137591 -0.071620525058 -0.025251568621 -0.53848395943 -0.071664526874
          -0.025250703208 -0.53950865373 -0.07163738004 -0.025143400541 -0.5406040149 -0.071486336337
          -0.025446767174 -0.54210696815 -0.071352421952 -0.025356912356 -0.54306526247 -0.070889482913
          -0.023674894465 -0.5336667422 -0.073204384785 -0.023822649052 -0.53405101038 -0.073224317763
          -0.023973733449 -0.53503760441 -0.073219662298 -0.023934798839 -0.53606974938 -0.073135723686
          -0.024066108564 -0.53713606122 -0.07303456994 -0.024065868361 -0.53830750826 -0.073019831497
          -0.024180270731 -0.53947119404 -0.07296908889 -0.024166718098 -0.54070346567 -0.072955884812
          -0.024296658984 -0.54212319817 -0.072895849572 -0.0245218137 -0.54388840478 -0.072874523111
          -0.022731590923 -0.53354179104 -0.074771938821 -0.022528663817 -0.53414052627 -0.074541413558
          -0.02292644083 -0.53508982634 -0.074470163296 -0.022843451533 -0.53606388012 -0.074466893641
          -0.022916628097 -0.53725245175 -0.074327664046 -0.022959648497 -0.53825983367 -0.074412138083
          -0.023021948794 -0.53954815528 -0.074296255562 -0.022924400136 -0.54074902932 -0.074215441235
          -0.02311309668 -0.54208685499 -0.07422484354 -0.02313326652 -0.54392561379 -0.074399549089
          -0.021744446126 -0.53270498125 -0.075963519662 -0.02222533406 -0.53408863629 -0.075668000816
          -0.021980468614 -0.53507184603 -0.075810817755 -0.021887533001 -0.53610654635 -0.075872090512