<?xml version="1.0"?>
<VTKFile type="UnstructuredGrid" version="0.1" byte_order="LittleEndian" compressor="vtkZLibDataCompressor">
  <UnstructuredGrid>
    <FieldData>
      <DataArray type="Float64" Name="TIME" NumberOfTuples="1" format="ascii" RangeMin="0.39852574065" RangeMax="0.39852574065">
        0.39852574065
      </DataArray>
    </FieldData>
    <Piece NumberOfPoints="1000" NumberOfCells="0">
      <PointData>
        <DataArray type="Float64" Name="Damage" format="ascii" RangeMin="0" RangeMax="0.49719101124">
          0 0 0 0 0 0
          0 0 0 0 0 0.027932960894
          0 0 0 0 0 0
          0.027932960894 0 0 0.055084745763 0.071428571429 0.040345821326
          0.014164305949 0.012987012987 0.040345821326 0.071428571429 0.055084745763 0
          0 0.067669172932 0.11239193084 0.1074168798 0.037688442211 0.034562211982
          0.1074168798 0.11239193084 0.067669172932 0 0 0.074349442379
          0.16147308782 0.16834170854 0.12376237624 0.11286681716 0.16834170854 0.16147308782
          0.074349442379 0 0 0.084459459459 0.2 0.25806451613
          0.33860045147 0.39211618257 0.25806451613 0.2 0.084459459459 0
          0 0.093984962406 0.25360230548 0.36061381074 0.41959798995 0.46774193548
          0.36061381074 0.25360230548 0.093984962406 0 0 0.10593220339
          0.31493506494 0.40057636888 0.4447592068 0.49090909091 0.40057636888 0.31493506494
          0.10593220339 0 0 0.16759776536 0.3686440678 0.43984962406
          0.44609665428 0.49662162162 0.43984962406 0.3686440678 0.16759776536 0
          0 0.1677852349 0.36734693878 0.43891402715 0.44642857143 0.49593495935
          0.43891402715 0.36734693878 0.1677852349 0 0 0
          0 0 0 0 0 0
          0 0 0 0.027906976744 0 0
          0 0 0 0 0.027906976744 0
          0 0.056338028169 0.072776280323 0.040669856459 0.014117647059 0.012931034483
          0.040669856459 0.072776280323 0.056338028169 0 0 0.06875
          0.11483253589 0.10828025478 0.0375782881 0.034416826004 0.10828025478 0.11483253589
          0.06875 0 0 0.074303405573 0.16235294118 0.16910229645
          0.12371134021 0.11257035647 0.16910229645 0.16235294118 0.074303405573 0
          0 0.084269662921 0.20043103448 0.25812619503 0.33771106942 0.39242685026
          0.25812619503 0.20043103448 0.084269662921 0 0 0.09375
          0.25358851675 0.36093418259 0.41962421712 0.46845124283 0.36093418259 0.25358851675
          0.09375 0 0 0.10563380282 0.3153638814 0.4019138756
          0.44470588235 0.49137931034 0.4019138756 0.3153638814 0.10563380282 0
          0 0.16744186047 0.36971830986 0.440625 0.44582043344 0.49719101124
          0.440625 0.36971830986 0.16744186047 0 0 0.16759776536
          0.3686440678 0.43984962406 0.44609665428 0.49662162162 0.43984962406 0.3686440678
          0.16759776536 0 0 0 0 0
          0 0 0 0 0 0
          0 0.024647887324 0 0 0 0
          0 0 0.024647887324 0 0 0.051212938005
          0.06875 0.038817005545 0.012635379061 0.011666666667 0.038817005545 0.06875
          0.051212938005 0 0 0.064593301435 0.10905730129 0.10491803279
          0.036858974359 0.034023668639 0.10491803279 0.10905730129 0.064593301435 0
          0 0.070588235294 0.15523465704 0.16506410256 0.12283464567 0.11271676301
          0.16506410256 0.15523465704 0.070588235294 0 0 0.081896551724
          0.19333333333 0.25443786982 0.33959537572 0.38985313752 0.25443786982 0.19333333333
          0.081896551724 0 0 0.093301435407 0.24768946396 0.35573770492
          0.41987179487 0.46449704142 0.35573770492 0.24768946396 0.093301435407 0
          0 0.10781671159 0.30833333333 0.39556377079 0.4440433213 0.48666666667
          0.39556377079 0.30833333333 0.10781671159 0 0 0.16197183099
          0.35579514825 0.43062200957 0.44470588235 0.49137931034 0.43062200957 0.35579514825
          0.16197183099 0 0 0.16101694915 0.3538961039 0.42939481268
          0.4447592068 0.49090909091 0.42939481268 0.3538961039 0.16101694915 0
          0 0 0 0 0 0
          0 0 0 0 0 0.025
          0 0 0 0 0 0
          0.025 0 0 0.05023923445 0.068391866913 0.039344262295
          0.012820512821 0.011834319527 0.039344262295 0.068391866913 0.05023923445 0
          0 0.063694267516 0.10819672131 0.10465116279 0.036984352774 0.034120734908
          0.10465116279 0.10819672131 0.063694267516 0 0 0.070981210856
          0.15544871795 0.16500711238 0.12290502793 0.11282051282 0.16500711238 0.15544871795
          0.070981210856 0 0 0.082217973231 0.19378698225 0.25459317585
          0.33974358974 0.38981042654 0.25459317585 0.19378698225 0.082217973231 0
          0 0.093418259023 0.24918032787 0.35610465116 0.41963015647 0.46456692913
          0.35610465116 0.24918032787 0.093418259023 0 0 0.10765550239
          0.30868761553 0.39508196721 0.44391025641 0.48668639053 0.39508196721 0.30868761553
          0.10765550239 0 0 0.1625 0.35645933014 0.43099787686
          0.44467640919 0.4913957935 0.43099787686 0.35645933014 0.1625 0
          0 0.16165413534 0.35446685879 0.42966751918 0.44472361809 0.49078341014
          0.42966751918 0.35446685879 0.16165413534 0 0 0
          0 0 0 0 0 0
          0 0 0 0.02786377709 0 0
          0 0 0 0 0.02786377709 0
          0 0.054117647059 0.070397111913 0.040064102564 0.014173228346 0.013005780347
          0.040064102564 0.070397111913 0.054117647059 0 0 0.066805845511
          0.11057692308 0.106685633 0.037709497207 0.034615384615 0.106685633 0.11057692308
          0.066805845511 0 0 0.074226804124 0.16062992126 0.16759776536
          0.12362637363 0.11292346299 0.16759776536 0.16062992126 0.074226804124 0
          0 0.084427767355 0.19942196532 0.25769230769 0.33877038896 0.39145496536
          0.25769230769 0.19942196532 0.084427767355 0 0 0.093945720251
          0.25320512821 0.35988620199 0.41899441341 0.46666666667 0.35988620199 0.25320512821
          0.093945720251 0 0 0.10588235294 0.31407942238 0.39903846154
          0.44409448819 0.48988439306 0.39903846154 0.31407942238 0.10588235294 0
          0 0.16718266254 0.36705882353 0.43841336117 0.44536082474 0.49530956848
          0.43841336117 0.36705882353 0.16718266254 0 0 0.16728624535
          0.36543909348 0.43718592965 0.44554455446 0.49435665914 0.43718592965 0.36543909348
          0.16728624535 0 0 0 0 0
          0 0 0 0 0 0
          0 0.025280898876 0 0 0 0
          0 0 0.025280898876 0 0 0.049568965517
          0.066666666667 0.038461538462 0.013005780347 0.012016021362 0.038461538462 0.066666666667
          0.049568965517 0 0 0.06309751434 0.1050295858 0.10367454068
          0.037179487179 0.034360189573 0.10367454068 0.1050295858 0.06309751434 0
          0 0.071294559099 0.15462427746 0.1641025641 0.12296110414 0.11316397229
          0.1641025641 0.15462427746 0.071294559099 0 0 0.082616179002
          0.19359145527 0.25473933649 0.34064665127 0.38930481283 0.25473933649 0.19359145527
          0.082616179002 0 0 0.093690248566 0.24852071006 0.35564304462
          0.41923076923 0.46327014218 0.35564304462 0.24852071006 0.093690248566 0
          0 0.10775862069 0.30833333333 0.39349112426 0.4436416185 0.48598130841
          0.39349112426 0.30833333333 0.10775862069 0 0 0.16292134831
          0.35560344828 0.43021032505 0.44465290807 0.49053356282 0.43021032505 0.35560344828
          0.16292134831 0 0 0.16216216216 0.35324675325 0.42857142857
          0.44469525959 0.48962655602 0.42857142857 0.35324675325 0.16216216216 0
          0 0 0 0 0 0
          0 0 0 0 0 0.025
          0 0 0 0 0 0
          0.025 0 0 0.05023923445 0.068391866913 0.039344262295
          0.012820512821 0.011834319527 0.039344262295 0.068391866913 0.05023923445 0
          0 0.063694267516 0.10819672131 0.10465116279 0.036984352774 0.034120734908
          0.10465116279 0.10819672131 0.063694267516 0 0 0.070981210856
          0.15544871795 0.16500711238 0.12290502793 0.11282051282 0.16500711238 0.15544871795
          0.070981210856 0 0 0.082217973231 0.19378698225 0.25459317585
          0.33974358974 0.38981042654 0.25459317585 0.19378698225 0.082217973231 0
          0 0.093418259023 0.24918032787 0.35610465116 0.41963015647 0.46456692913
          0.35610465116 0.24918032787 0.093418259023 0 0 0.10765550239
          0.30868761553 0.39508196721 0.44391025641 0.48668639053 0.39508196721 0.30868761553
          0.10765550239 0 0 0.1625 0.35645933014 0.43099787686
          0.44467640919 0.4913957935 0.43099787686 0.35645933014 0.1625 0
          0 0.16165413534 0.35446685879 0.42966751918 0.44472361809 0.49078341014
          0.42966751918 0.35446685879 0.16165413534 0 0 0
          0 0 0 0 0 0
          0 0 0 0.024647887324 0 0
          0 0 0 0 0.024647887324 0
          0 0.051212938005 0.06875 0.038817005545 0.012635379061 0.011666666667
          0.038817005545 0.06875 0.051212938005 0 0 0.064593301435
          0.10905730129 0.10491803279 0.036858974359 0.034023668639 0.10491803279 0.10905730129
          0.064593301435 0 0 0.070588235294 0.15523465704 0.16506410256
          0.12283464567 0.11271676301 0.16506410256 0.15523465704 0.070588235294 0
          0 0.081896551724 0.19333333333 0.25443786982 0.33959537572 0.38985313752
          0.25443786982 0.19333333333 0.081896551724 0 0 0.093301435407
          0.24768946396 0.35573770492 0.41987179487 0.46449704142 0.35573770492 0.24768946396
          0.093301435407 0 0 0.10781671159 0.30833333333 0.39556377079
          0.4440433213 0.48666666667 0.39556377079 0.30833333333 0.10781671159 0
          0 0.16197183099 0.35579514825 0.43062200957 0.44470588235 0.49137931034
          0.43062200957 0.35579514825 0.16197183099 0 0 0.16101694915
          0.3538961039 0.42939481268 0.4447592068 0.49090909091 0.42939481268 0.3538961039
          0.16101694915 0 0 0 0 0
          0 0 0 0 0 0
          0 0.027906976744 0 0 0 0
          0 0 0.027906976744 0 0 0.056338028169
          0.072776280323 0.040669856459 0.014117647059 0.012931034483 0.040669856459 0.072776280323
          0.056338028169 0 0 0.06875 0.11483253589 0.10828025478
          0.0375782881 0.034416826004 0.10828025478 0.11483253589 0.06875 0
          0 0.074303405573 0.16235294118 0.16910229645 0.12371134021 0.11257035647
          0.16910229645 0.16235294118 0.074303405573 0 0 0.084269662921
          0.20043103448 0.25812619503 0.33771106942 0.39242685026 0.25812619503 0.20043103448
          0.084269662921 0 0 0.09375 0.25358851675 0.36093418259
          0.41962421712 0.46845124283 0.36093418259 0.25358851675 0.09375 0
          0 0.10563380282 0.3153638814 0.4019138756 0.44470588235 0.49137931034
          0.4019138756 0.3153638814 0.10563380282 0 0 0.16744186047
          0.36971830986 0.440625 0.44582043344 0.49719101124 0.440625 0.36971830986
          0.16744186047 0 0 0.16759776536 0.3686440678 0.43984962406
          0.44609665428 0.49662162162 0.43984962406 0.3686440678 0.16759776536 0
          0 0 0 0 0 0
          0 0 0 0 0 0.027932960894
          0 0 0 0 0 0
          0.027932960894 0 0 0.055084745763 0.071428571429 0.040345821326
          0.014164305949 0.012987012987 0.040345821326 0.071428571429 0.055084745763 0
          0 0.067669172932 0.11239193084 0.1074168798 0.037688442211 0.034562211982
          0.1074168798 0.11239193084 0.067669172932 0 0 0.074349442379
          0.16147308782 0.16834170854 0.12376237624 0.11286681716 0.16834170854 0.16147308782
          0.074349442379 0 0 0.084459459459 0.2 0.25806451613
          0.33860045147 0.39211618257 0.25806451613 0.2 0.084459459459 0
          0 0.093984962406 0.25360230548 0.36061381074 0.41959798995 0.46774193548
          0.36061381074 0.25360230548 0.093984962406 0 0 0.10593220339
          0.31493506494 0.40057636888 0.4447592068 0.49090909091 0.40057636888 0.31493506494
          0.10593220339 0 0 0.16759776536 0.3686440678 0.43984962406
          0.44609665428 0.49662162162 0.43984962406 0.3686440678 0.16759776536 0
          0 0.1677852349 0.36734693878 0.43891402715 0.44642857143 0.49593495935
          0.43891402715 0.36734693878 0.1677852349 0
        </DataArray>
        <DataArray type="Float64" Name="Displacement" NumberOfComponents="3" format="ascii" RangeMin="0.20779872242" RangeMax="0.23601935602">
          -0.016442550655 0.20885327663 -0.049613749537 -0.01798644262 0.20882566351 -0.050847279877
          -0.019832341226 0.20776241007 -0.050287714023 -0.020082569342 0.20679426837 -0.050233444201
          -0.01975659846 0.20677031243 -0.051325900601 -0.019748598931 0.20579704523 -0.051336452048
          -0.019362258127 0.20402007084 -0.049995297249 -0.019665401625 0.2030165482 -0.049896501531
          -0.021246519081 0.20237407656 -0.050472242187 -0.023316862912 0.200486888 -0.04941296069
          -0.014253542098 0.20919841415 -0.054608963408 -0.016801826267 0.20969792471 -0.053767321886
          -0.018297582516 0.20999898621 -0.05355875853 -0.018518870191 0.20567066053 -0.050722749032
          -0.018883590491 0.20506785669 -0.050758815674 -0.019122904964 0.20438834804 -0.050853036754
          -0.01882424746 0.20334338094 -0.050809325216 -0.019233554475 0.20547890427 -0.053655393919
          -0.020739357121 0.20327958056 -0.053584674042 -0.023449720003 0.20089745007 -0.054511228873
          -0.018096696915 0.21095099548 -0.05248571911 -0.018926251192 0.20992802497 -0.052562586029
          -0.018204396737 0.20882415841 -0.053239108166 -0.01785706483 0.20757644714 -0.053402417106
          -0.018081713246 0.20586212837 -0.052527510591 -0.01775974871 0.20581273091 -0.053565907644
          -0.01797588217 0.20485070781 -0.053467888673 -0.017555141374 0.20428536887 -0.053081967119
          -0.016748654961 0.20339397389 -0.052419655329 -0.017288384198 0.20264676116 -0.052062834309
          -0.018904330537 0.21154711639 -0.052253582352 -0.016275716768 0.21025603456 -0.055373750878
          -0.01726094263 0.20828799537 -0.054238654774 -0.015780864948 0.20865695857 -0.055169240614
          -0.016494607106 0.20679415106 -0.054466394045 -0.01710726225 0.20531662818 -0.053970354801
          -0.017348496424 0.20498600429 -0.05449482769 -0.016689123405 0.20376969979 -0.054174702026
          -0.01779580318 0.20388841118 -0.055045299965 -0.01492070772 0.20323210271 -0.051956200172
          -0.014773763829 0.2102553775 -0.05685636408 -0.014563782681 0.20988841499 -0.055454024834
          -0.015938859238 0.20846147357 -0.055607848945 -0.015939055066 0.2076656497 -0.055169418836
          -0.015811638417 0.20716151516 -0.055576227086 -0.016532249416 0.20665571903 -0.05537285583
          -0.016462430528 0.20510881381 -0.055121510089 -0.016066961827 0.20403260377 -0.055473966501
          -0.01753967478 0.20323513681 -0.055341879707 -0.01728386452 0.20208452791 -0.056543896023
          -0.014289193643 0.21049312466 -0.05712164569 -0.014041193787 0.20916553164 -0.056961695278
          -0.013893663531 0.20936660273 -0.056605250576 -0.013788371487 0.20818572075 -0.056648896407
          -0.013322813346 0.20639833156 -0.055447153582 -0.016882554233 0.20549287313 -0.055464327278
          -0.016483311972 0.20538272123 -0.056627727095 -0.016298746126 0.20478861167 -0.056377383217
          -0.016289662644 0.2025609634 -0.056654213156 -0.016024536381 0.20228484934 -0.05682949306
          -0.014315984702 0.21036310396 -0.057412924366 -0.014208336417 0.20908593482 -0.05772240918
          -0.013550046027 0.20959661703 -0.057770597737 -0.011471484236 0.20738209822 -0.05794627911
          -0.012987165426 0.20584231333 -0.057590169782 -0.015575437486 0.20498799918 -0.057462015019
          -0.017063879289 0.20488632473 -0.057909957083 -0.014907205766 0.20507645992 -0.057643607239
          -0.014310656255 0.20240325844 -0.057441459503 -0.014166584596 0.20208681159 -0.057126407892
          -0.01273240655 0.20978224934 -0.060581823574 -0.012750881567 0.20979605925 -0.059002112725
          -0.01420637248 0.20895555806 -0.059220222314 -0.01394370664 0.20809533058 -0.059193748546
          -0.013455962339 0.20589271634 -0.060197217976 -0.01307611045 0.20490406031 -0.060160396977
          -0.012480087709 0.20526386009 -0.059133940629 -0.012274255665 0.20426601269 -0.059071448366
          -0.013776813263 0.20326709155 -0.058752843313 -0.013937526186 0.20132235569 -0.060418668296
          -0.0095385577659 0.21133737835 -0.059821132687 -0.012635474031 0.20923429335 -0.059105624304
          -0.01531473741 0.20792444436 -0.059976706774 -0.013732440524 0.20686889351 -0.06078120192
          -0.012131109748 0.2071375713 -0.058836249845 -0.012853213605 0.20621046794 -0.058897205914
          -0.010855405252 0.20413374684 -0.060635109386 -0.0092497103157 0.20343188894 -0.05960309351
          -0.011872425792 0.20261141277 -0.058913542495 -0.015212673612 0.20326505756 -0.059625206085
          -0.0073972977003 0.21238046716 -0.061378571625 -0.010228098339 0.21512724167 -0.054319652054
          -0.0088004109738 0.20657055071 -0.063990955574 -0.0087226832042 0.20451063992 -0.062583953106
          -0.008306386358 0.20084763729 -0.06426826103 -0.014573886948 0.20007845861 -0.064352938529
          -0.014414707778 0.2017782223 -0.062531679211 -0.014260306995 0.20190676096 -0.064053724872
          -0.012379745067 0.20887119142 -0.053846087414 -0.015024831575 0.20380761209 -0.061102683447
          -0.019114105896 0.21083558325 -0.050809998901 -0.019167170011 0.21118059902 -0.052432551895
          -0.019351969945 0.21003295306 -0.051741604005 -0.019803257953 0.20769250569 -0.050035367664
          -0.019732100467 0.20670093883 -0.049617658788 -0.019815938956 0.20576712183 -0.049851116656
          -0.01960034358 0.20523638323 -0.050231000173 -0.020073907461 0.20525464925 -0.051521013215
          -0.020080372379 0.20494504684 -0.052358584589 -0.02054224066 0.202459187 -0.050286588251
          -0.018752043095 0.21347007252 -0.053668528808 -0.018361379891 0.21052725453 -0.05310183161
          -0.019129489793 0.20958736593 -0.051747468346 -0.018878404058 0.20840208081 -0.051824399918
          -0.018644567264 0.20743030784 -0.051977437993 -0.018793618364 0.20663467875 -0.052077953751
          -0.018770746671 0.20555222292 -0.051795290355 -0.018446503408 0.20507252647 -0.051626319138
          -0.01941759669 0.20427619106 -0.052788924609 -0.018714688608 0.20538884602 -0.053363996458
          -0.017246180684 0.21225767233 -0.05529441269 -0.017642416249 0.21071075214 -0.053426745837
          -0.017775958811 0.20965775576 -0.053311084067 -0.017750042015 0.20837361497 -0.053148121116
          -0.017817528125 0.2075912177 -0.053159069966 -0.01788209278 0.2066027188 -0.0530855344
          -0.018096888843 0.20569883575 -0.053222532716 -0.018072528645 0.20517627447 -0.053342551467
          -0.018212094503 0.20420715925 -0.053215210038 -0.018627167745 0.20417734052 -0.054854645421
          -0.016935805329 0.21172777605 -0.054143851673 -0.016693347941 0.21072765107 -0.054469570656
          -0.016444031145 0.2097352139 -0.054841646333 -0.016788589509 0.20866910289 -0.054613694803
          -0.016976395636 0.20761228944 -0.054271408953 -0.016997513597 0.20663508382 -0.054132772748
          -0.01716093988 0.20586787282 -0.054400473166 -0.01745798304 0.20524449544 -0.054668475995
          -0.017299907569 0.20438014615 -0.054290397413 -0.017116849361 0.20321632483 -0.053875292991
          -0.015294817301 0.21172419075 -0.056017993385 -0.015387507786 0.21070600279 -0.055800665749
          -0.015200147329 0.20991758122 -0.055675440731 -0.015916482449 0.20864282294 -0.055435437469
          -0.015954409572 0.20773318119 -0.055420284354 -0.016040040543 0.20662415101 -0.055510397166
          -0.016298989138 0.20589749684 -0.055475851018 -0.01679956632 0.20537855001 -0.055464551748
          -0.016775930206 0.20431892238 -0.055655565608 -0.016883240256 0.20343448849 -0.055733090323
          -0.014426087993 0.21196248363 -0.056791483866 -0.014471334832 0.21052691137 -0.056983089695
          -0.014531312789 0.20983992957 -0.056530361531 -0.014757191368 0.2087570754 -0.056817685347
          -0.014984439995 0.20780563449 -0.056008738752 -0.01531019117 0.20688296413 -0.056019953581
          -0.01540370619 0.20600843801 -0.056478524043 -0.015964100399 0.20523254616 -0.056687721167
          -0.015804004685 0.20425675306 -0.056754203652 -0.015921938551 0.20402855022 -0.056451861133
          -0.013869294861 0.21125203066 -0.057145503023 -0.014152102658 0.21062883808 -0.057279616452
          -0.013943338813 0.20966969699 -0.057754725765 -0.013823513498 0.20910453677 -0.057744995758
          -0.013469602119 0.20780766512 -0.057225112253 -0.015122657751 0.20690819433 -0.057239538983
          -0.014598863777 0.20638961294 -0.057676787422 -0.014502024677 0.20512418976 -0.057474883053
          -0.014346119756 0.20427085054 -0.057104892727 -0.014431298418 0.20287226492 -0.056971581339
          -0.014353296462 0.2122222165 -0.056777114197 -0.01367375657 0.20987276838 -0.058942702403
          -0.012646719283 0.20915590272 -0.059545473988 -0.013418173374 0.20915473152 -0.058782153985
          -0.013575135232 0.2075857973 -0.059110108354 -0.013148238816 0.20667121245 -0.059191061063
          -0.013244494473 0.20645721076 -0.058699927344 -0.013965646958 0.20451301706 -0.059424356148
          -0.012934571543 0.20341232824 -0.058892778209 -0.012004413663 0.20402567309 -0.05649450036
          -0.010853908023 0.21164610683 -0.061769257992 -0.013289407698 0.2103961655 -0.059104641078
          -0.012522888231 0.2094922532 -0.059941909894 -0.012272400537 0.20893327816 -0.059922894274
          -0.012848180812 0.20733589362 -0.061554810066 -0.012011941959 0.2062038031 -0.061581230246
          -0.012507590023 0.20611343708 -0.059898340507 -0.012285085451 0.20489006105 -0.059867298985
          -0.011540922132 0.20386304195 -0.058949676027 -0.014006542222 0.20359228233 -0.061310466792
          -0.011016152584 0.21241210544 -0.064204933739 -0.012891116468 0.21055483636 -0.061199661178
          -0.012690047415 0.21008905313 -0.060011098787 -0.009268933362 0.2084305897 -0.061915620016
          -0.0085955861692 0.20688949305 -0.059806791406 -0.014351933629 0.20584558976 -0.05953695717
          -0.01377151513 0.20589655211 -0.061699899383 -0.010122014295 0.20577955733 -0.059796184934
          -0.010174112572 0.20408744132 -0.061142496362 -0.011769406504 0.20392348304 -0.063972783634
          -0.021594689399 0.21434477757 -0.051318188134 -0.021471807039 0.21304434881 -0.051720939456
          -0.020773810915 0.21018480995 -0.049532323641 -0.019975610376 0.20931110171 -0.050357145824
          -0.019894409135 0.20894194856 -0.051059637195 -0.019984918841 0.20751684224 -0.050389165184
          -0.019451719375 0.20665417461 -0.050381655576 -0.018799724783 0.2055238252 -0.049504388158
          -0.017910690505 0.20661505206 -0.051610707465 -0.017862453648 0.20609756121 -0.051243466224
          -0.020764202888 0.21484418061 -0.052204985618 -0.018410557742 0.21128218088 -0.052321022312
          -0.018892636969 0.21094939897 -0.052382456324 -0.018940310554 0.20950877474 -0.051880898336
          -0.018853597667 0.20873740781 -0.052043064845 -0.018785099388 0.20773062892 -0.052012903414
          -0.018709990269 0.20689164719 -0.051924964659 -0.018701078242 0.20654489681 -0.052285596831
          -0.019332435951 0.20492944626 -0.052189415677 -0.016817045744 0.20661011685 -0.051968622398
          -0.017520003205 0.21141276572 -0.052747839719 -0.016830794172 0.21145153246 -0.05389412093
          -0.017637918478 0.21065213287 -0.053376386313 -0.017831324552 0.2095985571 -0.053159298552
          -0.017867898768 0.20875145042 -0.053200286195 -0.017917532831 0.20787112161 -0.053024480092
          -0.017991984614 0.20676155664 -0.05303743507 -0.018106560354 0.20609468136 -0.053161296598
          -0.019284510374 0.20496591929 -0.053778994022 -0.01827806549 0.20304162202 -0.052541614687
          -0.016582712728 0.21243221221 -0.05475791193 -0.016895825535 0.21172131442 -0.054478954374
          -0.01689894819 0.21068657002 -0.05440886232 -0.017018380016 0.20970827812 -0.054348882833
          -0.017029396181 0.20869933062 -0.054394545595 -0.016964978743 0.20784921548 -0.054286276027
          -0.016944397651 0.20695221379 -0.054207274192 -0.017129435116 0.20611754816 -0.054307703726
          -0.017011895869 0.20535687726 -0.054309496857 -0.017310672002 0.2042325705 -0.054541303815
          -0.015517909639 0.2126660176 -0.055898193189 -0.015671194281 0.21164333366 -0.055722125089
          -0.015853239155 0.21079187194 -0.055588813448 -0.016059096372 0.20971345152 -0.055500347929
          -0.016121238536 0.20880151897 -0.055436184364 -0.016126081468 0.20783110211 -0.055431415922
          -0.016113917279 0.20699584384 -0.055467868207 -0.01632097452 0.20617697539 -0.055422242463
          -0.016504292032 0.20522776356 -0.055511114662 -0.016625479357 0.20449455062 -0.055696601813
          -0.014632042524 0.21343435836 -0.056900682007 -0.014975663819 0.21161183041 -0.056690741109
          -0.014630918093 0.21082841584 -0.056768187832 -0.014997264857 0.20972162121 -0.056632052349
          -0.014797122617 0.20885283731 -0.056503183176 -0.015498879853 0.20791115496 -0.056504394968
          -0.01530314238 0.20700563784 -0.056545570603 -0.015656785103 0.20622605329 -0.056621939305
          -0.015453002368 0.20519514541 -0.056598399925 -0.015753776268 0.20508578894 -0.056770516838
          -0.014460696975 0.21278303144 -0.057057498251 -0.013533505537 0.21169466912 -0.057973469466
          -0.013799190679 0.21072787772 -0.05795759994 -0.013804024005 0.209967205 -0.057715156286
          -0.013920769381 0.20904606473 -0.057573843979 -0.014431128948 0.20815061163 -0.057620288285
          -0.014847650613 0.20715672563 -0.057706206991 -0.01469038264 0.20614816988 -0.057759280282
          -0.01471768735 0.20528122701 -0.057657986847 -0.014149914658 0.20455553159 -0.056990010625
          -0.012618177869 0.21290328039 -0.058809992486 -0.013148541758 0.21171961901 -0.058621236985
          -0.013420705237 0.21078848683 -0.058952607733 -0.0139232435 0.21030219792 -0.058813160936
          -0.012543418944 0.20870113573 -0.058655166333 -0.013982201432 0.20759171386 -0.058941334145
          -0.0126782942 0.20765104457 -0.058629896396 -0.013205573522 0.20630026214 -0.058656612378
          -0.013594274048 0.20533670965 -0.058488449582 -0.014009120309 0.20454298532 -0.058644715902
          -0.012630042984 0.2132586064 -0.058843816952 -0.012166717805 0.21113889372 -0.060487827722
          -0.011461424244 0.21129229954 -0.059988285445 -0.011558084684 0.20971191471 -0.0604909115
          -0.012786771956 0.20988188659 -0.060511367924 -0.012004381918 0.20901041978 -0.060474131954
          -0.013198054497 0.2069296774 -0.060552506121 -0.013365013236 0.20667102121 -0.060019950482
          -0.01264320595 0.20476609921 -0.060369828041 -0.012197754257 0.20514136211 -0.058710240507
          -0.0063885833871 0.21658804275 -0.060880317493 -0.0096612414675 0.21279501175 -0.059528869831
          -0.011224934462 0.2124122404 -0.060130852872 -0.014667603523 0.211113086 -0.061071102878
          -0.0090865103936 0.20683261837 -0.061398625246 -0.013721892603 0.20596129204 -0.061335662299
          -0.0083454142855 0.20814963719 -0.060950366186 -0.011678688714 0.20769849075 -0.060069771696
          -0.013483776941 0.20644246842 -0.059412822184 -0.016636591943 0.20834934537 -0.060702654656
          -0.020149311192 0.21425179995 -0.052112636829 -0.019518025119 0.21230402172 -0.050527682047
          -0.020544752656 0.21216772519 -0.050830666346 -0.019945296152 0.2107914875 -0.050697638239
          -0.019798885848 0.20988783722 -0.05068258291 -0.019620840685 0.20882059744 -0.050623654213
          -0.019412681453 0.20796896387 -0.050446607091 -0.018896909231 0.20755235652 -0.05074465072
          -0.020009479847 0.20580581138 -0.050295777161 -0.019335613224 0.20605198165 -0.051885223084
          -0.01835431091 0.21334577907 -0.051433469885 -0.019136648849 0.21281986856 -0.052203009514
          -0.01899081591 0.21185102635 -0.052036670349 -0.018951419603 0.21092118809 -0.052056806323
          -0.018853888819 0.20967718844 -0.051911891653 -0.018881004045 0.20871247876 -0.051872278135
          -0.018766557759 0.20813166019 -0.051981280796 -0.018685292351 0.20719387914 -0.051918944082
          -0.018529261431 0.20639045232 -0.052063836756 -0.019358483293 0.20500375068 -0.051174124982
          -0.017881722165 0.21403180421 -0.053459215738 -0.017619729515 0.21269789575 -0.053479319274
          -0.017808616171 0.21172833888 -0.0532148705 -0.017961284859 0.21083782568 -0.053208555136
          -0.017937704274 0.20979303194 -0.053191470612 -0.017915315243 0.20896639767 -0.053155462285
          -0.017848617015 0.20804585018 -0.053155622543 -0.018082883949 0.20715288321 -0.053105402505
          -0.018233101965 0.20626994168 -0.053309949331 -0.017967470331 0.20577797747 -0.053361004363
          -0.016882447753 0.21426359466 -0.055012368961 -0.016843677465 0.21281364616 -0.054524959706
          -0.016921836013 0.21178547186 -0.054443880138 -0.016961950209 0.21084335379 -0.054392125567
          -0.016973633468 0.20985053916 -0.054378821352 -0.017001163207 0.20895585493 -0.054298969378
          -0.017044283278 0.2080308806 -0.054380594561 -0.017097502993 0.20720848827 -0.054299093463
          -0.017233583158 0.20637946341 -0.054376152186 -0.017151282121 0.20591397892 -0.054814854907
          -0.015781710558 0.21388179 -0.055602771247 -0.015860380311 0.21288191319 -0.055633201506
          -0.015961487816 0.2118608498 -0.055539575157 -0.015966803428 0.21078363813 -0.055530901859
          -0.016120213335 0.20985333811 -0.055457363774 -0.015986861037 0.20894765487 -0.05549986829
          -0.01617673853 0.20807894039 -0.05549318535 -0.01616214941 0.20730783695 -0.055417729269
          -0.016346104535 0.20649552872 -0.055465205194 -0.016411148364 0.20570344432 -0.055399750637