<?xml version="1.0"?>
<VTKFile type="UnstructuredGrid" version="0.1" byte_order="LittleEndian" compressor="vtkZLibDataCompressor">
  <UnstructuredGrid>
    <FieldData>
      <DataArray type="Float64" Name="TIME" NumberOfTuples="1" format="ascii" RangeMin="1.0698002797" RangeMax="1.0698002797">
        1.0698002797
      </DataArray>
    </FieldData>
    <Piece NumberOfPoints="1000" NumberOfCells="0">
      <PointData>
        <DataArray type="Float64" Name="Damage" format="ascii" RangeMin="0" RangeMax="0.5081300813">
          0.008064516129 0.006711409396 0 0 0 0
          0 0 0 0 0 0.027932960894
          0 0 0 0 0 0
          0.027932960894 0 0 0.055084745763 0.071428571429 0.040345821326
          0.014164305949 0.012987012987 0.040345821326 0.071428571429 0.055084745763 0
          0 0.067669172932 0.11239193084 0.1074168798 0.037688442211 0.034562211982
          0.1074168798 0.11239193084 0.067669172932 0 0 0.074349442379
          0.16147308782 0.16834170854 0.12376237624 0.11286681716 0.16834170854 0.16147308782
          0.074349442379 0 0 0.084459459459 0.2 0.25806451613
          0.33860045147 0.39211618257 0.25806451613 0.2 0.084459459459 0
          0 0.093984962406 0.25360230548 0.36061381074 0.41959798995 0.46774193548
          0.36061381074 0.25360230548 0.093984962406 0 0 0.10593220339
          0.31493506494 0.40057636888 0.4447592068 0.49090909091 0.40057636888 0.31493506494
          0.10593220339 0 0 0.17318435754 0.3686440678 0.43984962406
          0.44981412639 0.5 0.43984962406 0.3686440678 0.17318435754 0.006711409396
          0.016129032258 0.18791946309 0.36734693878 0.44343891403 0.46428571429 0.5081300813
          0.44343891403 0.36734693878 0.18791946309 0.016129032258 0 0
          0 0 0 0 0 0
          0 0 0 0.027906976744 0 0
          0 0 0 0 0.027906976744 0
          0 0.056338028169 0.072776280323 0.040669856459 0.014117647059 0.012931034483
          0.040669856459 0.072776280323 0.056338028169 0 0 0.06875
          0.11483253589 0.10828025478 0.0375782881 0.034416826004 0.10828025478 0.11483253589
          0.06875 0 0 0.074303405573 0.16235294118 0.16910229645
          0.12371134021 0.11257035647 0.16910229645 0.16235294118 0.074303405573 0
          0 0.084269662921 0.20043103448 0.25812619503 0.33771106942 0.39242685026
          0.25812619503 0.20043103448 0.084269662921 0 0 0.09375
          0.25358851675 0.36093418259 0.41962421712 0.46845124283 0.36093418259 0.25358851675
          0.09375 0 0 0.10563380282 0.3153638814 0.4019138756
          0.44470588235 0.49137931034 0.4019138756 0.3153638814 0.10563380282 0
          0 0.16744186047 0.36971830986 0.440625 0.44582043344 0.49719101124
          0.440625 0.36971830986 0.16744186047 0 0.013422818792 0.17877094972
          0.3686440678 0.44360902256 0.44981412639 0.5 0.43984962406 0.3686440678
          0.17877094972 0.006711409396 0 0 0 0
          0 0 0 0 0 0
          0 0.024647887324 0 0 0 0
          0 0 0.024647887324 0 0 0.051212938005
          0.06875 0.038817005545 0.012635379061 0.011666666667 0.038817005545 0.06875
          0.051212938005 0 0 0.064593301435 0.10905730129 0.10491803279
          0.036858974359 0.034023668639 0.10491803279 0.10905730129 0.064593301435 0
          0 0.070588235294 0.15523465704 0.16506410256 0.12283464567 0.11271676301
          0.16506410256 0.15523465704 0.070588235294 0 0 0.081896551724
          0.19333333333 0.25443786982 0.33959537572 0.38985313752 0.25443786982 0.19333333333
          0.081896551724 0 0 0.093301435407 0.24768946396 0.35573770492
          0.41987179487 0.46449704142 0.35573770492 0.24768946396 0.093301435407 0
          0 0.10781671159 0.30833333333 0.39556377079 0.4440433213 0.48666666667
          0.39556377079 0.30833333333 0.10781671159 0 0 0.16197183099
          0.35579514825 0.43062200957 0.44470588235 0.49137931034 0.43062200957 0.35579514825
          0.16197183099 0 0 0.16101694915 0.3538961039 0.42939481268
          0.4447592068 0.49090909091 0.42939481268 0.3538961039 0.16101694915 0
          0 0 0 0 0 0
          0 0 0 0 0 0.025
          0 0 0 0 0 0
          0.025 0 0 0.05023923445 0.068391866913 0.039344262295
          0.012820512821 0.011834319527 0.039344262295 0.068391866913 0.05023923445 0
          0 0.063694267516 0.10819672131 0.10465116279 0.036984352774 0.034120734908
          0.10465116279 0.10819672131 0.063694267516 0 0 0.070981210856
          0.15544871795 0.16500711238 0.12290502793 0.11282051282 0.16500711238 0.15544871795
          0.070981210856 0 0 0.082217973231 0.19378698225 0.25459317585
          0.33974358974 0.38981042654 0.25459317585 0.19378698225 0.082217973231 0
          0 0.093418259023 0.24918032787 0.35610465116 0.41963015647 0.46456692913
          0.35610465116 0.24918032787 0.093418259023 0 0 0.10765550239
          0.30868761553 0.39508196721 0.44391025641 0.48668639053 0.39508196721 0.30868761553
          0.10765550239 0 0 0.1625 0.35645933014 0.43099787686
          0.44467640919 0.4913957935 0.43099787686 0.35645933014 0.1625 0
          0 0.16165413534 0.35446685879 0.42966751918 0.44472361809 0.49078341014
          0.42966751918 0.35446685879 0.16165413534 0 0 0
          0 0 0 0 0 0
          0 0 0 0.02786377709 0 0
          0 0 0 0 0.02786377709 0
          0 0.054117647059 0.070397111913 0.040064102564 0.014173228346 0.013005780347
          0.040064102564 0.070397111913 0.054117647059 0 0 0.066805845511
          0.11057692308 0.106685633 0.037709497207 0.034615384615 0.106685633 0.11057692308
          0.066805845511 0 0 0.074226804124 0.16062992126 0.16759776536
          0.12362637363 0.11292346299 0.16759776536 0.16062992126 0.074226804124 0
          0 0.084427767355 0.19942196532 0.25769230769 0.33877038896 0.39145496536
          0.25769230769 0.19942196532 0.084427767355 0 0 0.093945720251
          0.25320512821 0.35988620199 0.41899441341 0.46666666667 0.35988620199 0.25320512821
          0.093945720251 0 0 0.10588235294 0.31407942238 0.39903846154
          0.44409448819 0.48988439306 0.39903846154 0.31407942238 0.10588235294 0
          0 0.16718266254 0.36705882353 0.43841336117 0.44536082474 0.49530956848
          0.43841336117 0.36705882353 0.16718266254 0 0 0.16728624535
          0.36543909348 0.43718592965 0.44554455446 0.49435665914 0.43718592965 0.36543909348
          0.16728624535 0 0 0 0 0
          0 0 0 0 0 0
          0 0.025280898876 0 0 0 0
          0 0 0.025280898876 0 0 0.049568965517
          0.066666666667 0.038461538462 0.013005780347 0.012016021362 0.038461538462 0.066666666667
          0.049568965517 0 0 0.06309751434 0.1050295858 0.10367454068
          0.037179487179 0.034360189573 0.10367454068 0.1050295858 0.06309751434 0
          0 0.071294559099 0.15462427746 0.1641025641 0.12296110414 0.11316397229
          0.1641025641 0.15462427746 0.071294559099 0 0 0.082616179002
          0.19359145527 0.25473933649 0.34064665127 0.38930481283 0.25473933649 0.19359145527
          0.082616179002 0 0 0.093690248566 0.24852071006 0.35564304462
          0.41923076923 0.46327014218 0.35564304462 0.24852071006 0.093690248566 0
          0 0.10775862069 0.30833333333 0.39349112426 0.4436416185 0.48598130841
          0.39349112426 0.30833333333 0.10775862069 0 0 0.16292134831
          0.35560344828 0.43021032505 0.44465290807 0.49053356282 0.43021032505 0.35560344828
          0.16292134831 0 0 0.16216216216 0.35324675325 0.42857142857
          0.44469525959 0.48962655602 0.42857142857 0.35324675325 0.16216216216 0
          0 0 0 0 0 0
          0 0 0 0 0 0.025
          0 0 0 0 0 0
          0.025 0 0 0.05023923445 0.068391866913 0.039344262295
          0.012820512821 0.011834319527 0.039344262295 0.068391866913 0.05023923445 0
          0 0.063694267516 0.10819672131 0.10465116279 0.036984352774 0.034120734908
          0.10465116279 0.10819672131 0.063694267516 0 0 0.070981210856
          0.15544871795 0.16500711238 0.12290502793 0.11282051282 0.16500711238 0.15544871795
          0.070981210856 0 0 0.082217973231 0.19378698225 0.25459317585
          0.33974358974 0.38981042654 0.25459317585 0.19378698225 0.082217973231 0
          0 0.093418259023 0.24918032787 0.35610465116 0.41963015647 0.46456692913
          0.35610465116 0.24918032787 0.093418259023 0 0 0.10765550239
          0.30868761553 0.39508196721 0.44391025641 0.48668639053 0.39508196721 0.30868761553
          0.10765550239 0 0 0.1625 0.35645933014 0.43099787686
          0.44467640919 0.4913957935 0.43099787686 0.35645933014 0.1625 0
          0 0.16165413534 0.35446685879 0.42966751918 0.44472361809 0.49078341014
          0.42966751918 0.35446685879 0.16165413534 0 0 0
          0 0 0 0 0 0
          0 0 0 0.024647887324 0 0
          0 0 0 0 0.024647887324 0
          0 0.051212938005 0.06875 0.038817005545 0.012635379061 0.011666666667
          0.038817005545 0.06875 0.051212938005 0 0 0.064593301435
          0.10905730129 0.10491803279 0.036858974359 0.034023668639 0.10491803279 0.10905730129
          0.064593301435 0 0 0.070588235294 0.15523465704 0.16506410256
          0.12283464567 0.11271676301 0.16506410256 0.15523465704 0.070588235294 0
          0 0.081896551724 0.19333333333 0.25443786982 0.33959537572 0.38985313752
          0.25443786982 0.19333333333 0.081896551724 0 0 0.093301435407
          0.24768946396 0.35573770492 0.41987179487 0.46449704142 0.35573770492 0.24768946396
          0.093301435407 0 0 0.10781671159 0.30833333333 0.39556377079
          0.4440433213 0.48666666667 0.39556377079 0.30833333333 0.10781671159 0
          0 0.16197183099 0.35579514825 0.43062200957 0.44470588235 0.49137931034
          0.43062200957 0.35579514825 0.16197183099 0 0 0.16101694915
          0.3538961039 0.42939481268 0.4447592068 0.49090909091 0.42939481268 0.3538961039
          0.16101694915 0 0 0 0 0
          0 0 0 0 0 0
          0 0.027906976744 0 0 0 0
          0 0 0.027906976744 0 0 0.056338028169
          0.072776280323 0.040669856459 0.014117647059 0.012931034483 0.040669856459 0.072776280323
          0.056338028169 0 0 0.06875 0.11483253589 0.10828025478
          0.0375782881 0.034416826004 0.10828025478 0.11483253589 0.06875 0
          0 0.074303405573 0.16235294118 0.16910229645 0.12371134021 0.11257035647
          0.16910229645 0.16235294118 0.074303405573 0 0 0.084269662921
          0.20043103448 0.25812619503 0.33771106942 0.39242685026 0.25812619503 0.20043103448
          0.084269662921 0 0 0.09375 0.25358851675 0.36093418259
          0.41962421712 0.46845124283 0.36093418259 0.25358851675 0.09375 0
          0 0.10563380282 0.3153638814 0.4019138756 0.44470588235 0.49137931034
          0.4019138756 0.3153638814 0.10563380282 0 0 0.16744186047
          0.36971830986 0.440625 0.44582043344 0.49719101124 0.440625 0.36971830986
          0.16744186047 0 0.006711409396 0.16759776536 0.3686440678 0.43984962406
          0.44609665428 0.49662162162 0.43984962406 0.3686440678 0.17318435754 0.006711409396
          0 0 0 0 0 0
          0 0 0 0 0 0.027932960894
          0 0 0 0 0 0
          0.027932960894 0 0 0.055084745763 0.071428571429 0.040345821326
          0.014164305949 0.012987012987 0.040345821326 0.071428571429 0.055084745763 0
          0 0.067669172932 0.11239193084 0.1074168798 0.037688442211 0.034562211982
          0.1074168798 0.11239193084 0.067669172932 0 0 0.074349442379
          0.16147308782 0.16834170854 0.12376237624 0.11286681716 0.16834170854 0.16147308782
          0.074349442379 0 0 0.084459459459 0.2 0.25806451613
          0.33860045147 0.39211618257 0.25806451613 0.2 0.084459459459 0
          0 0.093984962406 0.25360230548 0.36061381074 0.41959798995 0.46774193548
          0.36061381074 0.25360230548 0.093984962406 0 0 0.10593220339
          0.31493506494 0.40057636888 0.4447592068 0.49090909091 0.40057636888 0.31493506494
          0.10593220339 0 0 0.16759776536 0.3686440678 0.43984962406
          0.44981412639 0.5 0.43984962406 0.3686440678 0.16759776536 0.006711409396
          0.016129032258 0.1744966443 0.36734693878 0.44343891403 0.45535714286 0.50406504065
          0.44343891403 0.36734693878 0.18120805369 0.024193548387
        </DataArray>
        <DataArray type="Float64" Name="Displacement" NumberOfComponents="3" format="ascii" RangeMin="0.46581856528" RangeMax="2.8352429824">
          0.0050121485253 2.3230365425 -0.39160565093 -0.077804511949 2.3665155896 -0.2871583142
          -0.15418194839 2.410390542 -0.19288984355 -0.23586641919 2.4515307164 -0.089858137266
          -0.32342272324 2.4916396454 0.009687854424 -0.39494549315 2.5336310146 0.10433824447
          -0.4776895672 2.5744985585 0.20347839296 -0.56062204451 2.6164903129 0.30430514457
          -0.64715864226 2.6520347758 0.40557315796 -0.71599619741 2.6983488357 0.49483914093
          -0.032165737038 2.1252144004 -0.33631274969 -0.11564038414 2.1666506397 -0.23430485098
          -0.19438902249 2.2071219689 -0.13989168328 -0.27651850996 2.2483637412 -0.041122386501
          -0.35974924288 2.2884153967 0.059776042606 -0.43939261167 2.3293702205 0.15782823756
          -0.51795945611 2.3720807499 0.25555694057 -0.59992290107 2.4117920717 0.35525476239
          -0.68109045606 2.4525494023 0.45277374084 -0.76169647807 2.4944064406 0.54960851145
          -0.070945438801 1.9206078315 -0.28723962061 -0.15246050821 1.9630623304 -0.18668147079
          -0.2335488496 2.0034772641 -0.089127355709 -0.31437181641 2.0453803808 0.0088992027043
          -0.39444001505 2.0871393873 0.10729970786 -0.47791252134 2.1285889964 0.20741480813
          -0.55746187743 2.1688969801 0.30571453932 -0.63754188649 2.2087708236 0.40514822706
          -0.72052346509 2.2492910456 0.50345916439 -0.79822192157 2.289353979 0.60534746114
          -0.10782631046 1.7178107684 -0.23867631976 -0.19392982455 1.7590681146 -0.13749117009
          -0.27247531356 1.8018939677 -0.037639742216 -0.35338643616 1.8422618651 0.060496779264
          -0.43488076865 1.884110108 0.15832785169 -0.51540476297 1.9257863717 0.25709923089
          -0.59482438265 1.9661887496 0.35577226576 -0.67793402443 2.0056611737 0.45281987897
          -0.75836520581 2.0473015268 0.55474168447 -0.83486658285 2.0882765235 0.65304390729
          -0.1509239587 1.5186196467 -0.18408291828 -0.23056006348 1.557435277 -0.085472037516
          -0.30952619635 1.5985200604 0.010619702878 -0.39169170009 1.6391321364 0.10918879353
          -0.4719781578 1.6799219237 0.2081410326 -0.55391461198 1.721255567 0.30677627447
          -0.63419028484 1.763416169 0.40609322793 -0.71467547793 1.8040038618 0.50456698074
          -0.79826835431 1.8424574341 0.60144546886 -0.87846023826 1.8839431516 0.70131082425
          -0.1865350693 1.3127887413 -0.1356352084 -0.26838085295 1.3550088416 -0.037104964833
          -0.34840555722 1.3942303777 0.060993128128 -0.42995710931 1.4364265846 0.15958168931
          -0.51095824396 1.4780452631 0.25887560363 -0.59311033686 1.5209115971 0.35637691661
          -0.67369804229 1.5597859536 0.45451844952 -0.75332298533 1.5999352099 0.55425059818
          -0.83449190005 1.6408959858 0.65247670846 -0.9169568871 1.6798195604 0.75036738032
          -0.22578381087 1.1120159085 -0.083354870579 -0.3069261804 1.1541755124 0.014970159049
          -0.38703977108 1.1944056627 0.11084683946 -0.46775984824 1.2343480076 0.20850073262
          -0.54680271381 1.2756063257 0.30945398513 -0.63059744636 1.3171747094 0.40425868511
          -0.71096205585 1.3569212652 0.5028456994 -0.79261622169 1.3973146979 0.60133315418
          -0.87580037051 1.4377534094 0.69903668567 -0.95524785322 1.4769348308 0.79903260987
          -0.26221753023 0.90787026814 -0.037188403714 -0.34354510284 0.94822901998 0.062498971153
          -0.42382624183 0.98954272894 0.159991998 -0.50551718284 1.0306837863 0.25938812885
          -0.5880750068 1.0727836531 0.35872677773 -0.67113582238 1.1158440663 0.45495401131
          -0.74958068081 1.1535626119 0.55158885761 -0.82989063672 1.1939134637 0.65121912991
          -0.91146038125 1.2331954613 0.75034636096 -0.99359362513 1.2731058755 0.84795152241
          -0.3029288945 0.70643578476 0.01435087808 -0.38556983274 0.75147917886 0.1146268185
          -0.46172399115 0.78818715912 0.21434573814 -0.54282709849 0.82609173278 0.31058951208
          -0.62110137329 0.87256209646 0.41060246112 -0.70660117337 0.91099986972 0.49680401628
          -0.78907461757 0.94783025463 0.60103676335 -0.87045290044 0.98777872403 0.69605442532
          -0.95638470458 1.0307057269 0.79514479049 -1.0341598733 1.0692171242 0.89536153036
          -0.33732823733 0.49737063619 0.061313286403 -0.41687551208 0.53637843903 0.16470817256
          -0.49958225668 0.58401583833 0.26233695466 -0.57897979488 0.62442285728 0.36293134745
          -0.65866276148 0.63950270903 0.45862187697 -0.74221072552 0.70267772597 0.54394730186
          -0.8272016703 0.74000040545 0.64119930412 -0.90909898997 0.78301618192 0.74489531786
          -0.98696015687 0.81493675948 0.84400678178 -1.0679483498 0.8563850065 0.94624600395
          0.10510232788 2.279433389 -0.50830929655 0.020944947048 2.3193535094 -0.40862076328
          -0.058975720841 2.3610776959 -0.31045664574 -0.13892421495 2.4035181945 -0.21110803835
          -0.21843451584 2.4457300005 -0.11339095068 -0.30026796178 2.4852340628 -0.014860902793
          -0.38302643371 2.5267913463 0.086187262488 -0.46389569101 2.5663556536 0.18428245083
          -0.54482867079 2.6081102395 0.28212984224 -0.62424183649 2.6486889936 0.37992910483
          0.065088986193 2.0760417808 -0.45822697795 -0.016248249502 2.1186971331 -0.35836566193
          -0.095410029144 2.1601598134 -0.25999830929 -0.1762333109 2.2011841618 -0.16273640448
          -0.25771161931 2.2409823036 -0.062534329888 -0.33720719105 2.2825527137 0.03442122615
          -0.41897136186 2.3256885521 0.13442269055 -0.50025165213 2.3640406571 0.23238271986
          -0.58235633953 2.4054256157 0.33207179079 -0.66268607833 2.4452920752 0.4331812177
          0.026208194201 1.8717295743 -0.4082865767 -0.053730193564 1.9155298026 -0.30850947836
          -0.13454321099 1.9561220717 -0.21126477492 -0.21507139257 1.9980828802 -0.11285670721
          -0.29635573381 2.0396828172 -0.014171989962 -0.37643762301 2.0806333688 0.085319675814
          -0.45773876656 2.1212143841 0.18464298274 -0.53871899716 2.1614109806 0.28335603154
          -0.61987545169 2.2020891876 0.38167279831 -0.70151861917 2.2422211554 0.48398865694
          -0.012677581765 1.6693686842 -0.35779782439 -0.090904395399 1.7122806858 -0.25999892565
          -0.17201766551 1.7536630239 -0.16018306545 -0.25269317485 1.7953975194 -0.062274080449
          -0.33351698893 1.8368836463 0.035869314628 -0.41456940298 1.8777351361 0.13474979383
          -0.49581083628 1.918880339 0.23440025528 -0.57738571494 1.957772562 0.33253634895
          -0.65747797451 1.9988487039 0.43205577199 -0.74003286781 2.0384333129 0.53230423015
          -0.04725703197 1.4694306143 -0.30878094881 -0.12951878419 1.5097671691 -0.21047868168
          -0.21040016576 1.5513590576 -0.11098838951 -0.29154929358 1.5925029378 -0.012823625949
          -0.37167455434 1.6336014361 0.085451800216 -0.45308850206 1.6749993377 0.18435862292
          -0.53392679404 1.7160891995 0.28343128289 -0.61539559306 1.7565440268 0.38170569785
          -0.69608459133 1.7966791966 0.48127478648 -0.77647068336 1.8374604273 0.57953668146
          -0.08623258415 1.2650590848 -0.259016373 -0.16820797463 1.3070078259 -0.1602035222
          -0.24874670811 1.348012412 -0.060920606857 -0.32982679871 1.3894191612 0.037601378064
          -0.41020078636 1.4306100052 0.13649748442 -0.49254734822 1.4722594634 0.23356681482
          -0.57277032073 1.5120696963 0.33238658912 -0.65394747231 1.5529296439 0.43130013987
          -0.7337083041 1.593579903 0.53050223759 -0.81459981045 1.6324495514 0.63041075536
          -0.12453244235 1.0641595264 -0.20890592374 -0.20564783062 1.1045644023 -0.10991589291
          -0.28633965617 1.1457741289 -0.011854994236 -0.36719626021 1.1867670791 0.088615838185
          -0.45052821651 1.2275627661 0.18547782084 -0.53149955444 1.2699417688 0.28303093509
          -0.61108886704 1.3091399843 0.38073015525 -0.69187211605 1.3496129253 0.48011051508
          -0.77377155392 1.3894278486 0.57986229907 -0.85415946146 1.4298522014 0.67876731233
          -0.16420224547 0.86256883954 -0.15934020746 -0.2447928718 0.90237961521 -0.060683630696
          -0.32491051975 0.94283195328 0.03929587597 -0.40642321829 0.98361307422 0.13778160717
          -0.48852012872 1.0244396936 0.23539359755 -0.57030598035 1.0674447402 0.33212646422
          -0.65066468871 1.1057780303 0.43005510092 -0.73140035142 1.1463126194 0.52892080793
          -0.81256684313 1.1867789297 0.62819975537 -0.89436144666 1.2270599081 0.72648393016
          -0.2007482001 0.65730716557 -0.11016633019 -0.28157403615 0.69848221119 -0.011007652686
          -0.36223108696 0.73940547697 0.089834922944 -0.44325207131 0.78036882984 0.18784378173
          -0.5249923947 0.8202705319 0.2852929035 -0.60713692881 0.86332731142 0.37863737136
          -0.68878486094 0.90212670078 0.47697816529 -0.77067298033 0.94173973973 0.57640338619
          -0.8513547149 0.98311939297 0.67610373549 -0.93126496156 1.0203814846 0.77684278849
          -0.23443606785 0.4581682453 -0.073888712672 -0.32207145265 0.49760799089 0.039517668284
          -0.40045982675 0.53764584824 0.1362947869 -0.48219663076 0.57492105022 0.23514887021
          -0.5625925808 0.6192478075 0.33357815987 -0.64437843286 0.65634624413 0.42133500039
          -0.72733829581 0.69852578193 0.52504979857 -0.8094142845 0.73946054885 0.62372082838
          -0.89214591176 0.77816897808 0.72196131533 -0.96648414646 0.82417563334 0.82813811214
          0.20417603158 2.2354374649 -0.63100641373 0.12141159151 2.2732333637 -0.5307031087
          0.042152877829 2.3150885393 -0.43159680492 -0.038656910591 2.3553729769 -0.33273398167
          -0.11920367453 2.3966727654 -0.23469337911 -0.2007722332 2.4364219793 -0.13585531424
          -0.28096441574 2.4782724728 -0.037524786712 -0.36214754331 2.5206859425 0.061320492723
          -0.44370189415 2.5609382092 0.1605651362 -0.52653888723 2.6028543469 0.25951485513
          0.16457747952 2.0278467566 -0.58018647411 0.084255342301 2.0712670172 -0.48009304581
          0.0038391199186 2.1123699189 -0.38336920981 -0.076687615437 2.1531101822 -0.28419841233
          -0.15782404123 2.1941456669 -0.18555258133 -0.23903866591 2.2354262507 -0.086319877534
          -0.31906896339 2.2759400652 0.013036705288 -0.40029380131 2.3171139389 0.11156861135
          -0.48284235909 2.3572081356 0.20960188879 -0.56266843193 2.3970978581 0.3122353968
          0.12784472396 1.8268157476 -0.52983299836 0.045753266181 1.8689355525 -0.43160551177
          -0.034242544481 1.9097392987 -0.33293266118 -0.11521377393 1.9504315759 -0.23445321326
          -0.19650302833 1.9916321535 -0.13552293967 -0.27689611189 2.0326916291 -0.036461323067
          -0.35834792115 2.0736771052 0.062188414713 -0.43879181539 2.1143835902 0.16157200109
          -0.52059240384 2.1556340808 0.26090306361 -0.60114057174 2.195264018 0.35970875553
          0.087476381829 1.6241784159 -0.48115557942 0.0085992129841 1.6649353345 -0.38129379396
          -0.0727220181 1.706341095 -0.28285754302 -0.15347485295 1.7475064049 -0.1841970144
          -0.23440328772 1.7889901487 -0.085891390911 -0.31544331116 1.8301035633 0.013045697786
          -0.39645885093 1.8707631128 0.11176579645 -0.47734115702 1.9109949156 0.21124131008
          -0.55870133467 1.9514096912 0.30949437292 -0.63946856934 1.9933484581 0.41016177101
          0.051049190966 1.4217810689 -0.42988706802 -0.030426394108 1.4634710344 -0.33180451985
          -0.11067176202 1.5033439984 -0.23205494244 -0.19159223704 1.5450557501 -0.13529108512
          -0.27272106888 1.5859882787 -0.035726076805 -0.35373513605 1.6268303019 0.062616336868
          -0.43388003729 1.6691069879 0.16188960066 -0.51591269162 1.7070707477 0.26012061254
          -0.59755787985 1.7492198764 0.35875639381 -0.67783919903 1.7891595287 0.45715012215
          0.011850477184 1.2192212179 -0.37912931715 -0.068262422621 1.2599422083 -0.28198401347
          -0.14887946062 1.3011438438 -0.18286045024 -0.22986161236 1.3418206193 -0.085121015707
          -0.31040852158 1.3827197241 0.013994264744 -0.39182830982 1.4246381526 0.11183076589
          -0.4724830154 1.4652321584 0.21104868772 -0.55399388745 1.5046932212 0.30945016346
          -0.63562350212 1.5451981736 0.40831417274 -0.71763863087 1.5852571515 0.50703156058
          -0.025346062856 1.0161052797 -0.33056800198 -0.10599264663 1.0566257768 -0.23180998801
          -0.18663247795 1.0978639055 -0.13340063198 -0.26787010659 1.139828666 -0.034223975898
          -0.34811275353 1.1807342253 0.063484906914 -0.42974889773 1.2225123945 0.15986726988
          -0.51173141226 1.2618837824 0.25860085242 -0.59240782333 1.3020236766 0.35875293199
          -0.67407041627 1.3424166304 0.45752294578 -0.75565666995 1.3824427775 0.55639297799
          -0.063025276986 0.81221346391 -0.28137715807 -0.14463442811 0.85438048577 -0.18195269718
          -0.22334689999 0.89517119688 -0.084583323176 -0.30613743163 0.93696315996 0.014832874422
          -0.38806153601 0.97693515205 0.11388855537 -0.4697298579 1.0189554098 0.20951958081
          -0.54979741542 1.0591365781 0.30794783705 -0.62926385823 1.0995052857 0.40659434687
          -0.71303865385 1.1391977035 0.50631964473 -0.7939905872 1.1779645137 0.60512955278
          -0.10175265682 0.61100703587 -0.23193583238 -0.18235880344 0.65174782662 -0.13304003204
          -0.26327435531 0.69202265994 -0.033745659629 -0.34414255292 0.73339261204 0.064687457565
          -0.42460734129 0.7741738294 0.16389156093 -0.50732466383 0.81617043878 0.25519823777
          -0.58844077899 0.85553954058 0.35616079921 -0.67029602065 0.89514614924 0.45528576413
          -0.75144291025 0.93597841431 0.55487812382 -0.83255386301 0.9755140486 0.65442562501
          -0.13768734232 0.40656118031 -0.18093407141 -0.22003556585 0.44817600928 -0.084449203209
          -0.30080886398 0.48895300636 0.014741505066 -0.38154552772 0.5320014116 0.11608399257
          -0.46276988785 0.5689086415 0.21194228509 -0.54397946449 0.61134687757 0.30444886644
          -0.62763107498 0.65149843205 0.40112761181 -0.70802516739 0.69177295966 0.50304530754
          -0.79029820539 0.73075173644 0.60244723983 -0.87167327918 0.76596684993 0.70091702296
          0.30638212042 2.1896721556 -0.74899728281 0.22165445546 2.2245500002 -0.65456790688
          0.14183589957 2.2674336505 -0.55447538327 0.060795297171 2.3086490787 -0.45571456408
          -0.019954570326 2.3501797048 -0.35698220048 -0.10011858965 2.3899736448 -0.25800200212
          -0.1814012796 2.4316055872 -0.15828019636 -0.26287246114 2.4720605764 -0.060662456766
          -0.34472295081 2.5127737588 0.041397323429 -0.4226531029 2.5548013302 0.13262521746
          0.2658245079 1.981759274 -0.7017568867 0.18504808927 2.0238211318 -0.60291373806
          0.10390493805 2.0645998133 -0.50495600444 0.022733107398 2.1051991285 -0.40587666321
          -0.05793431406 2.1465565951 -0.30693850061 -0.13885538583 2.1877833088 -0.20801770376
          -0.21893243694 2.2284113836 -0.10796994515 -0.30058544456 2.2696997953 -0.010159906921
          -0.38162635556 2.3102652439 0.088235808342 -0.46357807841 2.3510586167 0.18818397768
          0.22720999509 1.7790872296 -0.65303428711 0.1461534605 1.8209658836 -0.55329077245
          0.065817628442 1.8625417319 -0.45453400551 -0.015326411241 1.902829202 -0.35621108766
          -0.096205255864 1.9441786534 -0.25759011439 -0.17707886199 1.9852220001 -0.15866274584
          -0.25817499302 2.0260770258 -0.059742337844 -0.33941159125 2.066484257 0.038850912274
          -0.4201448423 2.1078824018 0.1382616034 -0.50121736788 2.1487961539 0.2383026378
          0.18897065695 1.5764974673 -0.60111860457 0.10859577432 1.618336227 -0.50308768787
          0.027345540713 1.6592066185 -0.40481672034 -0.053510389058 1.7000632045 -0.30643420345
          -0.13442904502 1.7414038456 -0.20784570336 -0.21534590335 1.7826291735 -0.10910909571
          -0.29629552546 1.8233073028 -0.010042347601 -0.37761664676 1.8636624976 0.088708808292
          -0.45871654025 1.9042249895 0.18691822339 -0.53973550575 1.944143899 0.28669699462
          0.15250743678 1.3737226 -0.5523736348 0.070254318932 1.4153712619 -0.45314986644
          -0.010482742615 1.4560391129 -0.35497985686 -0.091599332831 1.4970938849 -0.2556513904
          -0.17266634331 1.5384333027 -0.15785381245 -0.25361060885 1.5796852562 -0.059503156343
          -0.33456860432 1.6204330076 0.039352812635 -0.41540369083 1.6607587132 0.13866369488
          -0.49734508434 1.7008146163 0.23684167162 -0.57795580441 1.7400722712 0.33646412182
          0.11298848608 1.1715290021 -0.50250875499 0.031880829993 1.2125847594 -0.40395976795
          -0.049032986486 1.2534327541 -0.30541686741 -0.12985652789 1.2943922758 -0.2068116845
          -0.21123790368 1.3357403368 -0.10801581232 -0.29225746616 1.3773733034 -0.010060359708
          -0.37284307231 1.4176136989 0.088916925319 -0.45398851941 1.4576644923 0.18779156347
          -0.53521002061 1.4976427623 0.28653905002 -0.61653644134 1.5384044388 0.38542674646
          0.075065524422 0.96840455614 -0.45238672357 -0.0063006638618 1.0097965323 -0.35472149455
          -0.086982035607 1.0506138872 -0.25508942423 -0.1678800101 1.0915362847 -0.15655166187
          -0.24873651069 1.1332543734 -0.057965894628 -0.33050608184 1.1743736402 0.037541643909
          -0.41147749796 1.2141658469 0.13762319122 -0.49299124084 1.2539063838 0.23629044013
          -0.57425370883 1.2950262748 0.33533096641 -0.65521096464 1.3345816375 0.43430329611