<?xml version="1.0"?>
<VTKFile type="UnstructuredGrid" version="0.1" byte_order="LittleEndian" compressor="vtkZLibDataCompressor">
  <UnstructuredGrid>
    <FieldData>
      <DataArray type="Float64" Name="TIME" NumberOfTuples="1" format="ascii" RangeMin="1.3651610768" RangeMax="1.3651610768">
        1.3651610768
      </DataArray>
    </FieldData>
    <Piece NumberOfPoints="1000" NumberOfCells="0">
      <PointData>
        <DataArray type="Float64" Name="Damage" format="ascii" RangeMin="0" RangeMax="0.5081300813">
          0.024193548387 0.006711409396 0 0 0 0
          0 0.010204081633 0.046979865772 0.12903225806 0.006711409396 0.027932960894
          0 0 0 0 0 0
          0.033519553073 0.013422818792 0 0.055084745763 0.071428571429 0.040345821326
          0.014164305949 0.012987012987 0.040345821326 0.071428571429 0.055084745763 0.0051020408163
          0 0.067669172932 0.11239193084 0.1074168798 0.037688442211 0.034562211982
          0.1074168798 0.11239193084 0.067669172932 0 0 0.074349442379
          0.16147308782 0.16834170854 0.12376237624 0.11286681716 0.16834170854 0.16147308782
          0.074349442379 0 0 0.084459459459 0.2 0.25806451613
          0.33860045147 0.39211618257 0.25806451613 0.2 0.084459459459 0
          0 0.093984962406 0.25360230548 0.36061381074 0.41959798995 0.46774193548
          0.36061381074 0.25360230548 0.093984962406 0 0 0.10593220339
          0.31493506494 0.40057636888 0.4447592068 0.49090909091 0.40057636888 0.31493506494
          0.10593220339 0 0 0.17318435754 0.3686440678 0.43984962406
          0.44981412639 0.5 0.43984962406 0.3686440678 0.17318435754 0.006711409396
          0.016129032258 0.18791946309 0.36734693878 0.44343891403 0.46428571429 0.5081300813
          0.44343891403 0.36734693878 0.18791946309 0.024193548387 0.006711409396 0
          0 0 0 0 0.0037593984962 0.012711864407
          0.016759776536 0.046979865772 0 0.027906976744 0 0
          0 0 0 0 0.032558139535 0
          0 0.056338028169 0.072776280323 0.040669856459 0.014117647059 0.012931034483
          0.040669856459 0.072776280323 0.056338028169 0 0 0.06875
          0.11483253589 0.10828025478 0.0375782881 0.034416826004 0.10828025478 0.11483253589
          0.06875 0 0 0.074303405573 0.16235294118 0.16910229645
          0.12371134021 0.11257035647 0.16910229645 0.16235294118 0.074303405573 0
          0 0.084269662921 0.20043103448 0.25812619503 0.33771106942 0.39242685026
          0.25812619503 0.20043103448 0.084269662921 0 0 0.09375
          0.25358851675 0.36093418259 0.41962421712 0.46845124283 0.36093418259 0.25358851675
          0.09375 0 0 0.10563380282 0.3153638814 0.4019138756
          0.44470588235 0.49137931034 0.4019138756 0.3153638814 0.10563380282 0
          0 0.16744186047 0.36971830986 0.440625 0.44582043344 0.49719101124
          0.440625 0.36971830986 0.16744186047 0 0.013422818792 0.17877094972
          0.3686440678 0.44360902256 0.44981412639 0.5 0.43984962406 0.3686440678
          0.17877094972 0.013422818792 0 0 0 0
          0 0 0.0028818443804 0.0064935064935 0.012711864407 0.020408163265
          0 0.024647887324 0 0 0 0
          0 0 0.028169014085 0 0 0.051212938005
          0.06875 0.038817005545 0.012635379061 0.011666666667 0.038817005545 0.06875
          0.051212938005 0 0 0.064593301435 0.10905730129 0.10491803279
          0.036858974359 0.034023668639 0.10491803279 0.10905730129 0.064593301435 0
          0 0.070588235294 0.15523465704 0.16506410256 0.12283464567 0.11271676301
          0.16506410256 0.15523465704 0.070588235294 0 0 0.081896551724
          0.19333333333 0.25443786982 0.33959537572 0.38985313752 0.25443786982 0.19333333333
          0.081896551724 0 0 0.093301435407 0.24768946396 0.35573770492
          0.41987179487 0.46449704142 0.35573770492 0.24768946396 0.093301435407 0
          0 0.10781671159 0.30833333333 0.39556377079 0.4440433213 0.48666666667
          0.39556377079 0.30833333333 0.10781671159 0 0 0.16197183099
          0.35579514825 0.43062200957 0.44470588235 0.49137931034 0.43062200957 0.35579514825
          0.16197183099 0 0 0.16101694915 0.3538961039 0.42939481268
          0.4447592068 0.49090909091 0.42939481268 0.3538961039 0.16101694915 0
          0 0 0 0 0 0
          0 0.0028818443804 0.0075187969925 0 0 0.025
          0 0 0 0 0 0
          0.025 0 0 0.05023923445 0.068391866913 0.039344262295
          0.012820512821 0.011834319527 0.039344262295 0.068391866913 0.05023923445 0
          0 0.063694267516 0.10819672131 0.10465116279 0.036984352774 0.034120734908
          0.10465116279 0.10819672131 0.063694267516 0 0 0.070981210856
          0.15544871795 0.16500711238 0.12290502793 0.11282051282 0.16500711238 0.15544871795
          0.070981210856 0 0 0.082217973231 0.19378698225 0.25459317585
          0.33974358974 0.38981042654 0.25459317585 0.19378698225 0.082217973231 0
          0 0.093418259023 0.24918032787 0.35610465116 0.41963015647 0.46456692913
          0.35610465116 0.24918032787 0.093418259023 0 0 0.10765550239
          0.30868761553 0.39508196721 0.44391025641 0.48668639053 0.39508196721 0.30868761553
          0.10765550239 0 0 0.1625 0.35645933014 0.43099787686
          0.44467640919 0.4913957935 0.43099787686 0.35645933014 0.1625 0
          0 0.16165413534 0.35446685879 0.42966751918 0.44472361809 0.49078341014
          0.42966751918 0.35446685879 0.16165413534 0 0 0
          0 0 0 0 0 0
          0 0 0 0.02786377709 0 0
          0 0 0 0 0.02786377709 0
          0 0.054117647059 0.070397111913 0.040064102564 0.014173228346 0.013005780347
          0.040064102564 0.070397111913 0.054117647059 0 0 0.066805845511
          0.11057692308 0.106685633 0.037709497207 0.034615384615 0.106685633 0.11057692308
          0.066805845511 0 0 0.074226804124 0.16062992126 0.16759776536
          0.12362637363 0.11292346299 0.16759776536 0.16062992126 0.074226804124 0
          0 0.084427767355 0.19942196532 0.25769230769 0.33877038896 0.39145496536
          0.25769230769 0.19942196532 0.084427767355 0 0 0.093945720251
          0.25320512821 0.35988620199 0.41899441341 0.46666666667 0.35988620199 0.25320512821
          0.093945720251 0 0 0.10588235294 0.31407942238 0.39903846154
          0.44409448819 0.48988439306 0.39903846154 0.31407942238 0.10588235294 0
          0 0.16718266254 0.36705882353 0.43841336117 0.44536082474 0.49530956848
          0.43841336117 0.36705882353 0.16718266254 0 0 0.16728624535
          0.36543909348 0.43718592965 0.44554455446 0.49435665914 0.43718592965 0.36543909348
          0.16728624535 0 0 0 0 0
          0 0 0 0 0 0
          0 0.025280898876 0 0 0 0
          0 0 0.025280898876 0 0 0.049568965517
          0.066666666667 0.038461538462 0.013005780347 0.012016021362 0.038461538462 0.066666666667
          0.049568965517 0 0 0.06309751434 0.1050295858 0.10367454068
          0.037179487179 0.034360189573 0.10367454068 0.1050295858 0.06309751434 0
          0 0.071294559099 0.15462427746 0.1641025641 0.12296110414 0.11316397229
          0.1641025641 0.15462427746 0.071294559099 0 0 0.082616179002
          0.19359145527 0.25473933649 0.34064665127 0.38930481283 0.25473933649 0.19359145527
          0.082616179002 0 0 0.093690248566 0.24852071006 0.35564304462
          0.41923076923 0.46327014218 0.35564304462 0.24852071006 0.093690248566 0
          0 0.10775862069 0.30833333333 0.39349112426 0.4436416185 0.48598130841
          0.39349112426 0.30833333333 0.10775862069 0 0 0.16292134831
          0.35560344828 0.43021032505 0.44465290807 0.49053356282 0.43021032505 0.35560344828
          0.16292134831 0 0 0.16216216216 0.35324675325 0.42857142857
          0.44469525959 0.48962655602 0.42857142857 0.35324675325 0.16216216216 0
          0.0045248868778 0.0037593984962 0 0 0 0
          0 0 0 0 0 0.025
          0 0 0 0 0 0
          0.025 0 0 0.05023923445 0.068391866913 0.039344262295
          0.012820512821 0.011834319527 0.039344262295 0.068391866913 0.05023923445 0
          0 0.063694267516 0.10819672131 0.10465116279 0.036984352774 0.034120734908
          0.10465116279 0.10819672131 0.063694267516 0 0 0.070981210856
          0.15544871795 0.16500711238 0.12290502793 0.11282051282 0.16500711238 0.15544871795
          0.070981210856 0 0 0.082217973231 0.19378698225 0.25459317585
          0.33974358974 0.38981042654 0.25459317585 0.19378698225 0.082217973231 0
          0 0.093418259023 0.24918032787 0.35610465116 0.41963015647 0.46456692913
          0.35610465116 0.24918032787 0.093418259023 0 0 0.10765550239
          0.30868761553 0.39508196721 0.44391025641 0.48668639053 0.39508196721 0.30868761553
          0.10765550239 0 0 0.1625 0.35645933014 0.43099787686
          0.44467640919 0.4913957935 0.43099787686 0.35645933014 0.1625 0
          0 0.16165413534 0.35446685879 0.42966751918 0.44472361809 0.49078341014
          0.42966751918 0.35446685879 0.16165413534 0 0.025510204082 0.0084745762712
          0 0 0 0 0 0
          0 0 0.0042372881356 0.024647887324 0 0
          0 0 0 0 0.024647887324 0
          0 0.051212938005 0.06875 0.038817005545 0.012635379061 0.011666666667
          0.038817005545 0.06875 0.051212938005 0 0 0.064593301435
          0.10905730129 0.10491803279 0.036858974359 0.034023668639 0.10491803279 0.10905730129
          0.064593301435 0 0 0.070588235294 0.15523465704 0.16506410256
          0.12283464567 0.11271676301 0.16506410256 0.15523465704 0.070588235294 0
          0 0.081896551724 0.19333333333 0.25443786982 0.33959537572 0.38985313752
          0.25443786982 0.19333333333 0.081896551724 0 0 0.093301435407
          0.24768946396 0.35573770492 0.41987179487 0.46449704142 0.35573770492 0.24768946396
          0.093301435407 0 0 0.10781671159 0.30833333333 0.39556377079
          0.4440433213 0.48666666667 0.39556377079 0.30833333333 0.10781671159 0
          0 0.16197183099 0.35579514825 0.43062200957 0.44470588235 0.49137931034
          0.43062200957 0.35579514825 0.16197183099 0 0 0.16101694915
          0.3538961039 0.42939481268 0.4447592068 0.49090909091 0.42939481268 0.3538961039
          0.16101694915 0 0.040268456376 0.011173184358 0.0084745762712 0
          0 0 0 0 0 0.006711409396
          0.011173184358 0.027906976744 0 0 0 0
          0 0 0.027906976744 0 0 0.056338028169
          0.072776280323 0.040669856459 0.014117647059 0.012931034483 0.040669856459 0.072776280323
          0.056338028169 0 0 0.06875 0.11483253589 0.10828025478
          0.0375782881 0.034416826004 0.10828025478 0.11483253589 0.06875 0
          0 0.074303405573 0.16235294118 0.16910229645 0.12371134021 0.11257035647
          0.16910229645 0.16235294118 0.074303405573 0 0 0.084269662921
          0.20043103448 0.25812619503 0.33771106942 0.39242685026 0.25812619503 0.20043103448
          0.084269662921 0 0 0.09375 0.25358851675 0.36093418259
          0.41962421712 0.46845124283 0.36093418259 0.25358851675 0.09375 0
          0 0.10563380282 0.3153638814 0.4019138756 0.44470588235 0.49137931034
          0.4019138756 0.3153638814 0.10563380282 0 0 0.16744186047
          0.36971830986 0.440625 0.44582043344 0.49719101124 0.440625 0.36971830986
          0.16744186047 0 0.006711409396 0.16759776536 0.3686440678 0.44360902256
          0.44981412639 0.5 0.43984962406 0.3686440678 0.17318435754 0.006711409396
          0.024193548387 0.046979865772 0.020408163265 0.0045248868778 0 0
          0 0 0 0.008064516129 0.03355704698 0.039106145251
          0.0042372881356 0 0 0 0 0
          0.027932960894 0 0.0051020408163 0.055084745763 0.071428571429 0.040345821326
          0.014164305949 0.012987012987 0.040345821326 0.071428571429 0.055084745763 0
          0 0.067669172932 0.11239193084 0.1074168798 0.037688442211 0.034562211982
          0.1074168798 0.11239193084 0.067669172932 0 0 0.074349442379
          0.16147308782 0.16834170854 0.12376237624 0.11286681716 0.16834170854 0.16147308782
          0.074349442379 0 0 0.084459459459 0.2 0.25806451613
          0.33860045147 0.39211618257 0.25806451613 0.2 0.084459459459 0
          0 0.093984962406 0.25360230548 0.36061381074 0.41959798995 0.46774193548
          0.36061381074 0.25360230548 0.093984962406 0 0 0.10593220339
          0.31493506494 0.40057636888 0.44759206799 0.49090909091 0.40057636888 0.31493506494
          0.10593220339 0 0.006711409396 0.16759776536 0.3686440678 0.43984962406
          0.44981412639 0.5 0.43984962406 0.3686440678 0.16759776536 0.006711409396
          0.024193548387 0.1744966443 0.36734693878 0.44343891403 0.46875 0.5081300813
          0.44343891403 0.36734693878 0.18120805369 0.024193548387
        </DataArray>
        <DataArray type="Float64" Name="Displacement" NumberOfComponents="3" format="ascii" RangeMin="0.3261391994" RangeMax="1.9615035583">
          0.016512847509 1.2841445127 -0.55346883236 -0.040160483981 1.346364649 -0.46306333155
          -0.11666366547 1.3985625687 -0.37141101338 -0.19453277751 1.4408074529 -0.27959260403
          -0.27700148417 1.4897694592 -0.1818397861 -0.3515710075 1.539434124 -0.088734528625
          -0.42812943853 1.5885527231 0.0021037480455 -0.50454751995 1.6370958115 0.09897613299
          -0.57440204281 1.6897978033 0.18633395077 -0.64267197348 1.7415880675 0.28064093222
          -0.016445792643 1.100979591 -0.49580180277 -0.089393519719 1.1557959051 -0.40122247866
          -0.16734803239 1.202209521 -0.30951477982 -0.24505897285 1.2510176017 -0.21549871693
          -0.32168617011 1.2998605717 -0.12049520035 -0.39956705165 1.34867732 -0.026698427602
          -0.47584190614 1.3965320353 0.06629445472 -0.55245609863 1.4469649048 0.15859947341
          -0.62661215361 1.4954144072 0.25038102645 -0.71122609921 1.5470136546 0.34604504733
          -0.06777767719 0.91602575393 -0.43297984916 -0.13957280039 0.9658133072 -0.3395262384
          -0.21762707866 1.0106560985 -0.24825117994 -0.29383101525 1.0604878046 -0.15618141547
          -0.36972000146 1.1075153081 -0.061422060072 -0.44592390216 1.1551170416 0.032796686629
          -0.52223150141 1.2066561587 0.12521828944 -0.60122951182 1.2546238067 0.21821804496
          -0.67875926258 1.3045802951 0.31191903076 -0.75084435818 1.3553511972 0.40509961958
          -0.11161672464 0.72166251533 -0.3793818974 -0.18783376561 0.77278465611 -0.28352425524
          -0.26650525164 0.82103378699 -0.18795312133 -0.34130861666 0.86791964464 -0.09530702538
          -0.41830846182 0.91617655059 -0.0025510644925 -0.49519616304 0.96753834819 0.090944301737
          -0.57240729854 1.013724938 0.1851396642 -0.6479615492 1.0650660079 0.27908941183
          -0.72240235091 1.1151779169 0.3722713993 -0.80216512325 1.1633348376 0.46560116019
          -0.16130695375 0.53257780083 -0.31651873464 -0.23893614996 0.58185631462 -0.22207298271
          -0.31511210225 0.62906906146 -0.12829031821 -0.39098331 0.6779227558 -0.034375148568
          -0.46783784015 0.72624235334 0.057647645057 -0.54383440125 0.77384075927 0.15194095857
          -0.61985208723 0.82682718077 0.24461011426 -0.69589970388 0.87267090025 0.33901216241
          -0.77294256774 0.92226760242 0.43312900761 -0.85380753986 0.97195197487 0.52210065348
          -0.21026743235 0.34256509806 -0.25623367185 -0.28552461982 0.38997170957 -0.16498462175
          -0.3626247139 0.43724952751 -0.069878419678 -0.43857000756 0.48630825509 0.024464473739
          -0.51697795471 0.53537059059 0.11514413563 -0.59105259096 0.58472446208 0.21161437436
          -0.66655672371 0.63156076841 0.30674189301 -0.74507531969 0.68116175737 0.39973929084
          -0.81979007389 0.73159852127 0.4905087297 -0.89923781997 0.77800773731 0.58604376237
          -0.25969856843 0.15477860157 -0.19700435585 -0.33472634489 0.19956540052 -0.10540618018
          -0.41104909307 0.2479164811 -0.010820077434 -0.48858112007 0.29576212465 0.084192122912
          -0.56166357797 0.34290978748 0.17810916102 -0.63870289546 0.38915637439 0.2694875048
          -0.71623659646 0.44070410992 0.36372290342 -0.79419585017 0.49126687985 0.45731184278
          -0.86868830418 0.53803419284 0.55005385906 -0.94881969677 0.58748380061 0.64362621195
          -0.30527408542 -0.043067792431 -0.14386700491 -0.38280324403 0.0042798541705 -0.049800089253
          -0.46127302833 0.054527698221 0.046791270335 -0.53595165754 0.10269471204 0.14272550145
          -0.61679478498 0.15122072302 0.23376172397 -0.68763411926 0.20396140662 0.33362484112
          -0.76378544359 0.25026898704 0.4245091546 -0.84032650188 0.29769845476 0.51933336122
          -0.91678597559 0.34553067131 0.61349634107 -0.99376740946 0.39664511743 0.70246828925
          -0.35054160011 -0.22993790963 -0.083513975777 -0.42961806049 -0.18906743156 0.0054132698453
          -0.50936754067 -0.13855287977 0.10324866734 -0.58501653387 -0.090648286808 0.2020612007
          -0.66691000637 -0.04066698463 0.29303113014 -0.7346745824 0.015820828968 0.38917101398
          -0.81041713226 0.058922511828 0.4846953156 -0.88617212632 0.10806216527 0.57924382083
          -0.96197364503 0.1554854348 0.67496035198 -1.0389306683 0.20228134895 0.76449632713
          -0.3981265843 -0.4300494917 -0.037531027865 -0.48050482478 -0.38276175881 0.059850788025
          -0.55912926326 -0.32600462938 0.16564255247 -0.62855223494 -0.27878667253 0.26492208075
          -0.71291402022 -0.24434502546 0.35170115066 -0.77910551708 -0.18885424761 0.44224390696
          -0.85928109215 -0.13644186316 0.53414832114 -0.93752811504 -0.084587795123 0.63444105203
          -1.007689244 -0.033816704912 0.734432095 -1.09943004 0.0055210323641 0.8196254573
          0.12779695923 1.2376876541 -0.67009529302 0.050765626465 1.2849285543 -0.57527459799
          -0.03009263088 1.3343725599 -0.48132113758 -0.10504153627 1.3844067109 -0.38848169486
          -0.18130724206 1.4333735549 -0.29504984491 -0.25598474876 1.4816820032 -0.20170606448
          -0.33198588842 1.5295812006 -0.10968599722 -0.41432651176 1.5792573451 -0.015689510282
          -0.4885782828 1.630526384 0.07843210078 -0.56404086908 1.6747576851 0.17110723975
          0.077450169385 1.0429231508 -0.61266253836 0.0027586076719 1.0936425704 -0.5191394759
          -0.074429372341 1.1431897823 -0.42329385413 -0.15256088222 1.1921980361 -0.33105742305
          -0.22756486675 1.2406675639 -0.23560345446 -0.30437306742 1.288314027 -0.14333090234
          -0.38063628716 1.3458852674 -0.048270746261 -0.45883216764 1.38583426 0.043614062583
          -0.5339024727 1.4385270722 0.13533052689 -0.61394123709 1.4883751636 0.22710150743
          0.029420190909 0.85304691997 -0.55150425086 -0.04640212242 0.90337782449 -0.4567922807
          -0.12251848344 0.9523958408 -0.36244777193 -0.20139769734 1.0000704215 -0.27144767333
          -0.27783126544 1.052148409 -0.17763264613 -0.35277668357 1.0994329751 -0.083283191814
          -0.42927702276 1.148179437 0.011970899315 -0.5053298631 1.1956183268 0.10284236332
          -0.58257441477 1.2455038858 0.19658131807 -0.65911603016 1.2953396411 0.29132299081
          -0.019940127764 0.66305802855 -0.49276306983 -0.09580911715 0.71243012136 -0.39778011788
          -0.16995065325 0.7609080006 -0.30320460207 -0.24650814327 0.81123458243 -0.21154642776
          -0.32438187804 0.85911250401 -0.11732935669 -0.4011125086 0.90752091905 -0.023298401174
          -0.47688756453 0.95808186951 0.070106077024 -0.55398719728 1.0044439215 0.16342317051
          -0.6310614491 1.0555191245 0.25761989302 -0.70382718071 1.1045231322 0.3512761013
          -0.064872058302 0.47429393346 -0.43223392346 -0.14448976078 0.52195289474 -0.33756385372
          -0.2196289459 0.56964505841 -0.24452864213 -0.29601129478 0.61821707552 -0.15033932925
          -0.37285861643 0.66641702138 -0.0558752969 -0.44876065732 0.71588061482 0.036763051697
          -0.52582663225 0.76589030368 0.131079268 -0.60114910468 0.81471225968 0.22325686391
          -0.67838397035 0.86435061138 0.31743966143 -0.75543958364 0.9135519096 0.4080623511
          -0.11514108905 0.281623556 -0.37328048746 -0.19005312354 0.33069683213 -0.2791623061
          -0.26817160122 0.37899643178 -0.18551424862 -0.34424591636 0.42681650709 -0.089927217661
          -0.42298576764 0.47436663101 0.0036707103706 -0.49748568079 0.52425688423 0.097784978587
          -0.57275362342 0.57382758796 0.19132243105 -0.64958258996 0.62310121909 0.28420988493
          -0.72773015206 0.67180853682 0.37798397647 -0.80340634338 0.72072617082 0.47015914745
          -0.16115344558 0.088662414071 -0.31439474752 -0.24090308928 0.13762591316 -0.22186918581
          -0.31631169239 0.18825207069 -0.125918681 -0.39329044456 0.23542560241 -0.031461660319
          -0.47220856465 0.28394500257 0.061118826472 -0.54496120516 0.33465794398 0.15682771346
          -0.62098536886 0.38278418741 0.24999693948 -0.69753494279 0.43107273081 0.3422281825
          -0.77365134218 0.48094947909 0.43639779226 -0.85328604131 0.53065620836 0.5291678963
          -0.21293585192 -0.10091015721 -0.25375211867 -0.28897173637 -0.054376046038 -0.16116666148
          -0.36771723063 -0.0034250356427 -0.067984066531 -0.44432577995 0.042879051432 0.027977529819
          -0.52028060739 0.091453094979 0.12067676938 -0.59140642069 0.14074633903 0.21624305229
          -0.66845958221 0.18860286286 0.31053302265 -0.7465978519 0.23965214078 0.40293825964
          -0.82326506759 0.28880133299 0.49712346166 -0.90210333846 0.33820032366 0.58899050506
          -0.2609191371 -0.29668626099 -0.19728599568 -0.33804337917 -0.24697228095 -0.10266082173
          -0.41591384168 -0.19615022789 -0.0082734558522 -0.49429800877 -0.14914560027 0.084407705805
          -0.57035337328 -0.099993228854 0.17847842122 -0.63985071949 -0.048215368507 0.27550653035
          -0.71814920687 -0.0017297320749 0.3679190882 -0.79501497888 0.047595611467 0.46152890725
          -0.86941072087 0.095224645899 0.55613010642 -0.94662736896 0.1442178366 0.65053573164
          -0.30705651628 -0.48534508214 -0.14193165147 -0.39039761276 -0.43551774507 -0.04691014772
          -0.46651942709 -0.38884754261 0.043250481108 -0.54210167425 -0.34077647578 0.14214658766
          -0.62148454148 -0.2951074699 0.23701106358 -0.6878870689 -0.23888836727 0.32961740526
          -0.76596158314 -0.19275052187 0.42726194291 -0.84347036465 -0.14093457432 0.52681490707
          -0.92323580143 -0.097603498762 0.61282840129 -0.99466148208 -0.044331929563 0.71180853279
          0.21797002093 1.1776199269 -0.78354924787 0.14507357197 1.2298726706 -0.68845666088
          0.06552172548 1.2748912842 -0.59907013334 -0.0092799802768 1.3235674829 -0.50819306743
          -0.085031763508 1.3722982048 -0.41068753555 -0.1608511189 1.4192988574 -0.31746136092
          -0.23857233258 1.4710042471 -0.22487193495 -0.31659804687 1.5195624582 -0.13000269806
          -0.39270379991 1.5682311634 -0.039294264076 -0.47305279752 1.6130701485 0.059932141613
          0.17435836875 0.98641805549 -0.72484475439 0.094046827712 1.0347163087 -0.62966140681
          0.019984700438 1.0840993602 -0.53767424534 -0.05682817878 1.1310489175 -0.44573765429
          -0.13473713215 1.1810856948 -0.35091422592 -0.2115258976 1.2307298177 -0.2579765462
          -0.28718468282 1.279658745 -0.16374263921 -0.36525729781 1.330167371 -0.070990700613
          -0.44109712688 1.3779864074 0.021271447567 -0.51595297141 1.4276146638 0.11325808834
          0.12256286592 0.79627066816 -0.66436015269 0.047149585043 0.84566729578 -0.5719057494
          -0.028547935304 0.8928125574 -0.47833332628 -0.10617388895 0.94154451609 -0.38463180555
          -0.18316781963 0.99077095132 -0.29065635305 -0.26034694445 1.0399743722 -0.19893836596
          -0.33657964604 1.0886958563 -0.10547355305 -0.41179161106 1.1383294418 -0.010807576147
          -0.48798065502 1.1894306704 0.083201258857 -0.56527020009 1.2357809047 0.17465588923
          0.075828609183 0.60503362845 -0.60873419658 -0.00034646578718 0.65357703537 -0.51248844055
          -0.077727403409 0.70092080871 -0.41834160071 -0.1541930204 0.74998417487 -0.32435144313
          -0.2306895233 0.79895209238 -0.23138512944 -0.30724769975 0.84794107922 -0.13803572419
          -0.38488787934 0.89633782133 -0.045241668849 -0.45957326662 0.94695824295 0.048019598677
          -0.53539490858 0.99291171003 0.14043146771 -0.61303976747 1.0483975719 0.23705988354
          0.027066494599 0.41351588803 -0.54699710031 -0.051172740943 0.46106709275 -0.4547972101
          -0.12580157423 0.50993216541 -0.35869409747 -0.2028500491 0.55870418721 -0.26499097439
          -0.27934177464 0.60741853767 -0.17080985998 -0.35516247382 0.65637032889 -0.07799057517
          -0.43045602205 0.70767134482 0.016148622395 -0.50840015586 0.75509797578 0.10847533305
          -0.5853260677 0.80547966254 0.20301829052 -0.66172502356 0.8541204764 0.29580127994
          -0.021208232751 0.22036874038 -0.48929236017 -0.098103973944 0.26958493319 -0.39406066915
          -0.17391654238 0.31789442603 -0.29895858785 -0.25078607231 0.36656639047 -0.20602453395
          -0.32703188356 0.41619101439 -0.11035455788 -0.40256299943 0.46527725476 -0.018176657981
          -0.47933406306 0.51539557528 0.075564825403 -0.55546596533 0.56213722919 0.16891937026
          -0.63283681356 0.6131512239 0.26170912808 -0.70753278691 0.66232759176 0.35784139215
          -0.068768212971 0.030765647324 -0.4305508724 -0.14759684841 0.078694046797 -0.3342044276
          -0.22379655106 0.12808826187 -0.23955305926 -0.3001879247 0.17685251971 -0.14632205647
          -0.37730376314 0.22487195797 -0.054561712333 -0.45021518158 0.27591803201 0.041820399773
          -0.5278521541 0.32414092557 0.13420029788 -0.60455612954 0.37295777381 0.22831844139
          -0.68127290168 0.42135261476 0.32168309951 -0.75695892352 0.46971842858 0.41583915488
          -0.11950859463 -0.16140880764 -0.37111730723 -0.19598013854 -0.1121803518 -0.27663769975
          -0.26752635794 -0.062958120016 -0.18357122503 -0.34874099075 -0.016539719727 -0.088268051294
          -0.42931327565 0.032117920205 0.007753576056 -0.50036280796 0.082796144665 0.10159150663
          -0.5735716607 0.13140539747 0.19578835537 -0.64850646374 0.18160406797 0.28715578151
          -0.72913470454 0.230441084 0.38273499214 -0.80515211772 0.27858408498 0.47569241532
          -0.16646765785 -0.35326718337 -0.31262102121 -0.24459860719 -0.30346783027 -0.21713683777
          -0.32296713757 -0.25607648031 -0.12530826231 -0.39982061272 -0.20839480748 -0.029519657254
          -0.47617865627 -0.15986553503 0.064805763255 -0.54579198943 -0.10945212658 0.15918674058
          -0.62356284681 -0.059453627613 0.25515733568 -0.7005115921 -0.011104738678 0.34792702647
          -0.77660120944 0.038724509265 0.44159249792 -0.8531498881 0.088652785137 0.53524007723
          -0.21645519958 -0.54397359755 -0.25595980105 -0.29260933111 -0.49748740446 -0.15997628955
          -0.37055780747 -0.44908544484 -0.06492528718 -0.44766187191 -0.39883083297 0.031140251372
          -0.52826787922 -0.35291235221 0.12353168304 -0.5965098496 -0.29955689752 0.22017364177
          -0.67136874624 -0.25095976445 0.31203198424 -0.74778126159 -0.20393126597 0.4063346106
          -0.82585957421 -0.15210408175 0.50266241785 -0.90504941396 -0.10841043453 0.59497274182
          0.3169285178 1.1245853926 -0.89871034174 0.23188508956 1.16142217 -0.80894177289
          0.15996533652 1.2146658732 -0.71343745579 0.083984946947 1.2631974702 -0.62117268522
          0.0082793433172 1.3097180399 -0.52384105067 -0.06896354818 1.3607778732 -0.43375344321
          -0.14610952121 1.4109776072 -0.33970151136 -0.22305519606 1.4606419556 -0.24576321437
          -0.30071442905 1.5113895767 -0.14978936379 -0.37808845576 1.5601932513 -0.059875457264
          0.26310609364 0.92503615777 -0.83759507341 0.18920216555 0.97532473444 -0.74611085769
          0.11302318875 1.0246437607 -0.65231028147 0.035259057262 1.0722804119 -0.55904990263
          -0.040749720265 1.1217768131 -0.46549221398 -0.11771462949 1.1711117277 -0.37186070135
          -0.19303208623 1.2205663742 -0.27892456826 -0.26982637399 1.2707272642 -0.18664490701
          -0.34728178104 1.319376508 -0.093300457046 -0.4239452165 1.3683209958 0.0031674256005
          0.21621920702 0.73497814871 -0.78255140418 0.14026778612 0.78364351658 -0.68847548725
          0.064163116544 0.83347791672 -0.59376074956 -0.011992343097 0.88223851581 -0.49935695813
          -0.088616167461 0.93089186609 -0.40616701443 -0.16487367298 0.98049103737 -0.312974342
          -0.24134264096 1.0298237364 -0.2201944238 -0.32009479822 1.079564485 -0.12643150325
          -0.39463791944 1.1282594417 -0.032627785517 -0.47064617696 1.1802095364 0.061743563443
          0.17014443007 0.54390581558 -0.7204919637 0.093386682677 0.59379519416 -0.62754226714
          0.016201937292 0.6418600968 -0.53335378357 -0.060515273973 0.69035144098 -0.43934191486
          -0.13717240346 0.7392843161 -0.34569505225 -0.21336695174 0.78862154542 -0.25290711116
          -0.28941632852 0.83837151169 -0.15951041343 -0.36620588122 0.88740436467 -0.066760803107
          -0.44192712229 0.93684042801 0.026382809863 -0.51926408076 0.98669180638 0.12171688812
          0.12134779778 0.35589228651 -0.65787229972 0.043544563685 0.40164936916 -0.56633611041
          -0.032647825812 0.45121925093 -0.4738342219 -0.1090443346 0.49921491217 -0.37726189829
          -0.18536441404 0.54850822332 -0.28603229808 -0.26119345388 0.59794374901 -0.19292948551
          -0.3371697063 0.64704316996 -0.099148712279 -0.41431135628 0.69618495108 -0.0066300991941
          -0.48988540859 0.74591393048 0.087414217542 -0.56694952174 0.79471257342 0.18046502776
          0.072240182365 0.16274153953 -0.60161517923 -0.0039989968567 0.21033080658 -0.50817056517
          -0.080580421052 0.25953649181 -0.41376037243 -0.15751690946 0.3079002697 -0.32011763408