<?xml version="1.0"?>
<VTKFile type="UnstructuredGrid" version="0.1" byte_order="LittleEndian" compressor="vtkZLibDataCompressor">
  <UnstructuredGrid>
    <FieldData>
      <DataArray type="Float64" Name="TIME" NumberOfTuples="1" format="ascii" RangeMin="1.1503532243" RangeMax="1.1503532243">
        1.1503532243
      </DataArray>
    </FieldData>
    <Piece NumberOfPoints="1000" NumberOfCells="0">
      <PointData>
        <DataArray type="Float64" Name="Damage" format="ascii" RangeMin="0" RangeMax="0.5081300813">
          0.016129032258 0.006711409396 0 0 0 0
          0 0.0051020408163 0.026845637584 0.11290322581 0 0.027932960894
          0 0 0 0 0 0
          0.027932960894 0 0 0.055084745763 0.071428571429 0.040345821326
          0.014164305949 0.012987012987 0.040345821326 0.071428571429 0.055084745763 0
          0 0.067669172932 0.11239193084 0.1074168798 0.037688442211 0.034562211982
          0.1074168798 0.11239193084 0.067669172932 0 0 0.074349442379
          0.16147308782 0.16834170854 0.12376237624 0.11286681716 0.16834170854 0.16147308782
          0.074349442379 0 0 0.084459459459 0.2 0.25806451613
          0.33860045147 0.39211618257 0.25806451613 0.2 0.084459459459 0
          0 0.093984962406 0.25360230548 0.36061381074 0.41959798995 0.46774193548
          0.36061381074 0.25360230548 0.093984962406 0 0 0.10593220339
          0.31493506494 0.40057636888 0.4447592068 0.49090909091 0.40057636888 0.31493506494
          0.10593220339 0 0 0.17318435754 0.3686440678 0.43984962406
          0.44981412639 0.5 0.43984962406 0.3686440678 0.17318435754 0.006711409396
          0.016129032258 0.18791946309 0.36734693878 0.44343891403 0.46428571429 0.5081300813
          0.44343891403 0.36734693878 0.18791946309 0.016129032258 0.006711409396 0
          0 0 0 0 0.0037593984962 0.012711864407
          0.016759776536 0.046979865772 0 0.027906976744 0 0
          0 0 0 0 0.032558139535 0
          0 0.056338028169 0.072776280323 0.040669856459 0.014117647059 0.012931034483
          0.040669856459 0.072776280323 0.056338028169 0 0 0.06875
          0.11483253589 0.10828025478 0.0375782881 0.034416826004 0.10828025478 0.11483253589
          0.06875 0 0 0.074303405573 0.16235294118 0.16910229645
          0.12371134021 0.11257035647 0.16910229645 0.16235294118 0.074303405573 0
          0 0.084269662921 0.20043103448 0.25812619503 0.33771106942 0.39242685026
          0.25812619503 0.20043103448 0.084269662921 0 0 0.09375
          0.25358851675 0.36093418259 0.41962421712 0.46845124283 0.36093418259 0.25358851675
          0.09375 0 0 0.10563380282 0.3153638814 0.4019138756
          0.44470588235 0.49137931034 0.4019138756 0.3153638814 0.10563380282 0
          0 0.16744186047 0.36971830986 0.440625 0.44582043344 0.49719101124
          0.440625 0.36971830986 0.16744186047 0 0.013422818792 0.17877094972
          0.3686440678 0.44360902256 0.44981412639 0.5 0.43984962406 0.3686440678
          0.17877094972 0.006711409396 0 0 0 0
          0 0 0.0028818443804 0.0064935064935 0.012711864407 0.020408163265
          0 0.024647887324 0 0 0 0
          0 0 0.028169014085 0 0 0.051212938005
          0.06875 0.038817005545 0.012635379061 0.011666666667 0.038817005545 0.06875
          0.051212938005 0 0 0.064593301435 0.10905730129 0.10491803279
          0.036858974359 0.034023668639 0.10491803279 0.10905730129 0.064593301435 0
          0 0.070588235294 0.15523465704 0.16506410256 0.12283464567 0.11271676301
          0.16506410256 0.15523465704 0.070588235294 0 0 0.081896551724
          0.19333333333 0.25443786982 0.33959537572 0.38985313752 0.25443786982 0.19333333333
          0.081896551724 0 0 0.093301435407 0.24768946396 0.35573770492
          0.41987179487 0.46449704142 0.35573770492 0.24768946396 0.093301435407 0
          0 0.10781671159 0.30833333333 0.39556377079 0.4440433213 0.48666666667
          0.39556377079 0.30833333333 0.10781671159 0 0 0.16197183099
          0.35579514825 0.43062200957 0.44470588235 0.49137931034 0.43062200957 0.35579514825
          0.16197183099 0 0 0.16101694915 0.3538961039 0.42939481268
          0.4447592068 0.49090909091 0.42939481268 0.3538961039 0.16101694915 0
          0 0 0 0 0 0
          0 0.0028818443804 0.0075187969925 0 0 0.025
          0 0 0 0 0 0
          0.025 0 0 0.05023923445 0.068391866913 0.039344262295
          0.012820512821 0.011834319527 0.039344262295 0.068391866913 0.05023923445 0
          0 0.063694267516 0.10819672131 0.10465116279 0.036984352774 0.034120734908
          0.10465116279 0.10819672131 0.063694267516 0 0 0.070981210856
          0.15544871795 0.16500711238 0.12290502793 0.11282051282 0.16500711238 0.15544871795
          0.070981210856 0 0 0.082217973231 0.19378698225 0.25459317585
          0.33974358974 0.38981042654 0.25459317585 0.19378698225 0.082217973231 0
          0 0.093418259023 0.24918032787 0.35610465116 0.41963015647 0.46456692913
          0.35610465116 0.24918032787 0.093418259023 0 0 0.10765550239
          0.30868761553 0.39508196721 0.44391025641 0.48668639053 0.39508196721 0.30868761553
          0.10765550239 0 0 0.1625 0.35645933014 0.43099787686
          0.44467640919 0.4913957935 0.43099787686 0.35645933014 0.1625 0
          0 0.16165413534 0.35446685879 0.42966751918 0.44472361809 0.49078341014
          0.42966751918 0.35446685879 0.16165413534 0 0 0
          0 0 0 0 0 0
          0 0 0 0.02786377709 0 0
          0 0 0 0 0.02786377709 0
          0 0.054117647059 0.070397111913 0.040064102564 0.014173228346 0.013005780347
          0.040064102564 0.070397111913 0.054117647059 0 0 0.066805845511
          0.11057692308 0.106685633 0.037709497207 0.034615384615 0.106685633 0.11057692308
          0.066805845511 0 0 0.074226804124 0.16062992126 0.16759776536
          0.12362637363 0.11292346299 0.16759776536 0.16062992126 0.074226804124 0
          0 0.084427767355 0.19942196532 0.25769230769 0.33877038896 0.39145496536
          0.25769230769 0.19942196532 0.084427767355 0 0 0.093945720251
          0.25320512821 0.35988620199 0.41899441341 0.46666666667 0.35988620199 0.25320512821
          0.093945720251 0 0 0.10588235294 0.31407942238 0.39903846154
          0.44409448819 0.48988439306 0.39903846154 0.31407942238 0.10588235294 0
          0 0.16718266254 0.36705882353 0.43841336117 0.44536082474 0.49530956848
          0.43841336117 0.36705882353 0.16718266254 0 0 0.16728624535
          0.36543909348 0.43718592965 0.44554455446 0.49435665914 0.43718592965 0.36543909348
          0.16728624535 0 0 0 0 0
          0 0 0 0 0 0
          0 0.025280898876 0 0 0 0
          0 0 0.025280898876 0 0 0.049568965517
          0.066666666667 0.038461538462 0.013005780347 0.012016021362 0.038461538462 0.066666666667
          0.049568965517 0 0 0.06309751434 0.1050295858 0.10367454068
          0.037179487179 0.034360189573 0.10367454068 0.1050295858 0.06309751434 0
          0 0.071294559099 0.15462427746 0.1641025641 0.12296110414 0.11316397229
          0.1641025641 0.15462427746 0.071294559099 0 0 0.082616179002
          0.19359145527 0.25473933649 0.34064665127 0.38930481283 0.25473933649 0.19359145527
          0.082616179002 0 0 0.093690248566 0.24852071006 0.35564304462
          0.41923076923 0.46327014218 0.35564304462 0.24852071006 0.093690248566 0
          0 0.10775862069 0.30833333333 0.39349112426 0.4436416185 0.48598130841
          0.39349112426 0.30833333333 0.10775862069 0 0 0.16292134831
          0.35560344828 0.43021032505 0.44465290807 0.49053356282 0.43021032505 0.35560344828
          0.16292134831 0 0 0.16216216216 0.35324675325 0.42857142857
          0.44469525959 0.48962655602 0.42857142857 0.35324675325 0.16216216216 0
          0 0 0 0 0 0
          0 0 0 0 0 0.025
          0 0 0 0 0 0
          0.025 0 0 0.05023923445 0.068391866913 0.039344262295
          0.012820512821 0.011834319527 0.039344262295 0.068391866913 0.05023923445 0
          0 0.063694267516 0.10819672131 0.10465116279 0.036984352774 0.034120734908
          0.10465116279 0.10819672131 0.063694267516 0 0 0.070981210856
          0.15544871795 0.16500711238 0.12290502793 0.11282051282 0.16500711238 0.15544871795
          0.070981210856 0 0 0.082217973231 0.19378698225 0.25459317585
          0.33974358974 0.38981042654 0.25459317585 0.19378698225 0.082217973231 0
          0 0.093418259023 0.24918032787 0.35610465116 0.41963015647 0.46456692913
          0.35610465116 0.24918032787 0.093418259023 0 0 0.10765550239
          0.30868761553 0.39508196721 0.44391025641 0.48668639053 0.39508196721 0.30868761553
          0.10765550239 0 0 0.1625 0.35645933014 0.43099787686
          0.44467640919 0.4913957935 0.43099787686 0.35645933014 0.1625 0
          0 0.16165413534 0.35446685879 0.42966751918 0.44472361809 0.49078341014
          0.42966751918 0.35446685879 0.16165413534 0 0 0
          0 0 0 0 0 0
          0 0 0 0.024647887324 0 0
          0 0 0 0 0.024647887324 0
          0 0.051212938005 0.06875 0.038817005545 0.012635379061 0.011666666667
          0.038817005545 0.06875 0.051212938005 0 0 0.064593301435
          0.10905730129 0.10491803279 0.036858974359 0.034023668639 0.10491803279 0.10905730129
          0.064593301435 0 0 0.070588235294 0.15523465704 0.16506410256
          0.12283464567 0.11271676301 0.16506410256 0.15523465704 0.070588235294 0
          0 0.081896551724 0.19333333333 0.25443786982 0.33959537572 0.38985313752
          0.25443786982 0.19333333333 0.081896551724 0 0 0.093301435407
          0.24768946396 0.35573770492 0.41987179487 0.46449704142 0.35573770492 0.24768946396
          0.093301435407 0 0 0.10781671159 0.30833333333 0.39556377079
          0.4440433213 0.48666666667 0.39556377079 0.30833333333 0.10781671159 0
          0 0.16197183099 0.35579514825 0.43062200957 0.44470588235 0.49137931034
          0.43062200957 0.35579514825 0.16197183099 0 0 0.16101694915
          0.3538961039 0.42939481268 0.4447592068 0.49090909091 0.42939481268 0.3538961039
          0.16101694915 0 0 0 0 0
          0 0 0 0 0 0
          0 0.027906976744 0 0 0 0
          0 0 0.027906976744 0 0 0.056338028169
          0.072776280323 0.040669856459 0.014117647059 0.012931034483 0.040669856459 0.072776280323
          0.056338028169 0 0 0.06875 0.11483253589 0.10828025478
          0.0375782881 0.034416826004 0.10828025478 0.11483253589 0.06875 0
          0 0.074303405573 0.16235294118 0.16910229645 0.12371134021 0.11257035647
          0.16910229645 0.16235294118 0.074303405573 0 0 0.084269662921
          0.20043103448 0.25812619503 0.33771106942 0.39242685026 0.25812619503 0.20043103448
          0.084269662921 0 0 0.09375 0.25358851675 0.36093418259
          0.41962421712 0.46845124283 0.36093418259 0.25358851675 0.09375 0
          0 0.10563380282 0.3153638814 0.4019138756 0.44470588235 0.49137931034
          0.4019138756 0.3153638814 0.10563380282 0 0 0.16744186047
          0.36971830986 0.440625 0.44582043344 0.49719101124 0.440625 0.36971830986
          0.16744186047 0 0.006711409396 0.16759776536 0.3686440678 0.43984962406
          0.44609665428 0.49662162162 0.43984962406 0.3686440678 0.17318435754 0.006711409396
          0 0 0 0 0 0
          0 0 0 0 0 0.027932960894
          0 0 0 0 0 0
          0.027932960894 0 0 0.055084745763 0.071428571429 0.040345821326
          0.014164305949 0.012987012987 0.040345821326 0.071428571429 0.055084745763 0
          0 0.067669172932 0.11239193084 0.1074168798 0.037688442211 0.034562211982
          0.1074168798 0.11239193084 0.067669172932 0 0 0.074349442379
          0.16147308782 0.16834170854 0.12376237624 0.11286681716 0.16834170854 0.16147308782
          0.074349442379 0 0 0.084459459459 0.2 0.25806451613
          0.33860045147 0.39211618257 0.25806451613 0.2 0.084459459459 0
          0 0.093984962406 0.25360230548 0.36061381074 0.41959798995 0.46774193548
          0.36061381074 0.25360230548 0.093984962406 0 0 0.10593220339
          0.31493506494 0.40057636888 0.4447592068 0.49090909091 0.40057636888 0.31493506494
          0.10593220339 0 0 0.16759776536 0.3686440678 0.43984962406
          0.44981412639 0.5 0.43984962406 0.3686440678 0.16759776536 0.006711409396
          0.016129032258 0.1744966443 0.36734693878 0.44343891403 0.45535714286 0.50406504065
          0.44343891403 0.36734693878 0.18120805369 0.024193548387
        </DataArray>
        <DataArray type="Float64" Name="Displacement" NumberOfComponents="3" format="ascii" RangeMin="1.0152573412" RangeMax="3.3775723192">
          -0.17185696121 2.9790824376 -0.20025211443 -0.2626368151 2.9848846344 -0.074591020186
          -0.34838796459 2.9884359743 0.03207245829 -0.43865272563 2.989012703 0.14007559533
          -0.53300244701 2.984686851 0.25035464008 -0.61578860323 2.9910574816 0.35946022657
          -0.70784167253 2.9905473175 0.46106409806 -0.7980484781 2.9892926197 0.57562407361
          -0.8980358847 2.9920723185 0.69919854054 -0.98158191747 2.9974747725 0.79066488954
          -0.17231845721 2.76614165 -0.18542048941 -0.26324767848 2.7644359975 -0.074592341776
          -0.34929054045 2.7686320109 0.03277303274 -0.43914388217 2.7676827874 0.14099381708
          -0.52774881555 2.7698161207 0.2515350886 -0.61783470849 2.7706411189 0.35965679216
          -0.70693100507 2.7724162455 0.46966492907 -0.7963373071 2.7737338221 0.57803712801
          -0.88806720813 2.7747039126 0.68619035584 -0.97703794625 2.7751130336 0.79597722625
          -0.17328092534 2.543469803 -0.18140545833 -0.26319522849 2.5417791815 -0.074248922116
          -0.35371264827 2.5438453573 0.036868949409 -0.44099717541 2.5448902608 0.14405589127
          -0.530976805 2.5465591305 0.25263627981 -0.61936420664 2.5491072265 0.3610144402
          -0.70892490246 2.5504796849 0.47057438289 -0.79962628308 2.5509230359 0.57876430264
          -0.88603630547 2.5532326281 0.6880078389 -0.97934157177 2.5611760552 0.79187724068
          -0.17187475932 2.3198096395 -0.18425641187 -0.26517162161 2.3198723287 -0.076131296269
          -0.35285502103 2.3216823865 0.036392364734 -0.44249074825 2.3218872636 0.14730968615
          -0.53286679493 2.3232657695 0.255376348 -0.62253737628 2.325767575 0.36449386409
          -0.70957588621 2.327229526 0.47070042143 -0.79762818331 2.3298701348 0.582224722
          -0.88598020293 2.3305504719 0.69414073945 -0.97545679188 2.334120874 0.80026706742
          -0.17715313883 2.0971257233 -0.17727329587 -0.26445410851 2.0993516686 -0.072800061688
          -0.35484657423 2.0990839265 0.038013233516 -0.444663093 2.1008334289 0.14670006776
          -0.53267473074 2.1010214587 0.25647421526 -0.62213967597 2.1041941023 0.3658668272
          -0.71143512769 2.1046945689 0.47380162109 -0.80138057378 2.1080780767 0.58464916201
          -0.88854773978 2.1100612243 0.69366648452 -0.98101893469 2.1125177375 0.79903996712
          -0.17704501239 1.8763069154 -0.17857683513 -0.26668255288 1.8756844261 -0.070823849441
          -0.35576677876 1.8768188602 0.040062665213 -0.44494457022 1.8786136544 0.14987847132
          -0.53469293935 1.8801386927 0.25845864584 -0.62352977337 1.8806998279 0.36619536337
          -0.71276853749 1.8841285344 0.47634038224 -0.80234036886 1.8853551154 0.58573373898
          -0.88970185064 1.8867290717 0.69695884953 -0.98335005986 1.8906831174 0.80090986875
          -0.17831789906 1.6526883521 -0.17721058797 -0.26683609136 1.6540387821 -0.068338607533
          -0.35716531731 1.6552824025 0.041697815699 -0.44722014543 1.6579660959 0.14934742114
          -0.53663137433 1.6573879978 0.2589008887 -0.62522802379 1.6583946995 0.37093000927
          -0.71379830845 1.6630954032 0.48071426955 -0.8023787011 1.662866143 0.58829982411
          -0.89071138113 1.6646189542 0.69652392106 -0.98027872998 1.6681725784 0.8063737791
          -0.18195345611 1.4313686747 -0.17087172209 -0.2696726604 1.4314138728 -0.066359164979
          -0.35943001131 1.4328452299 0.041461314726 -0.44694318886 1.4336290218 0.1525692709
          -0.53466220641 1.4371689603 0.26314266535 -0.62513140043 1.4367025241 0.37342212536
          -0.71413871764 1.4385084708 0.47982169454 -0.8043161227 1.4409640849 0.59133212251
          -0.89435981211 1.4441941728 0.69993924697 -0.98563636494 1.447960422 0.8064411427
          -0.18306388157 1.2076728116 -0.16949663623 -0.27103687612 1.2077175509 -0.062250613915
          -0.3571494914 1.2078456016 0.048309547295 -0.44698413276 1.2103166232 0.156181533
          -0.53843446374 1.2129595386 0.2602556293 -0.62679293484 1.21174535 0.38016085775
          -0.71538319181 1.2152256391 0.4834722739 -0.80417701233 1.2150261207 0.58989161868
          -0.89712834883 1.2189960583 0.70098911696 -0.98522819263 1.2242063646 0.80894056668
          -0.18319708877 0.98674304876 -0.16936362248 -0.28339956145 0.99976680068 -0.056270555481
          -0.36239817264 0.9887518635 0.049785222373 -0.45058449866 0.99581726288 0.15733281776
          -0.55421424753 1.0053579434 0.26754082841 -0.63307208805 0.9917738225 0.38623509153
          -0.72060917482 0.99717670933 0.48540757813 -0.8085854631 0.99611162308 0.59429226262
          -0.90305013065 1.0089407254 0.70286235943 -0.99244540565 1.0013429727 0.80871412511
          -0.059325906686 2.9886784508 -0.31426625371 -0.15326724323 2.9837990422 -0.21067719795
          -0.24253736748 2.9859421081 -0.10026076597 -0.33066531896 2.9858600901 0.006641281632
          -0.42075704438 2.9900409258 0.11651369093 -0.50823141879 2.9914885326 0.22601804041
          -0.59625521765 2.9921827242 0.3353126625 -0.68388749909 2.9902181115 0.44604773927
          -0.77236311717 3 0.54842505078 -0.8746163123 2.9857587923 0.67256675831
          -0.062203440586 2.7587417317 -0.32082848378 -0.15316273748 2.7616837814 -0.21016904293
          -0.24272649141 2.7636489797 -0.099764935069 -0.33120066376 2.7650494771 0.0092034326479
          -0.41978457981 2.7672387797 0.1178879519 -0.5096853255 2.7681227895 0.22638923848
          -0.59826403135 2.7705127783 0.33641589841 -0.6888490649 2.7721101178 0.44516877753
          -0.77654541427 2.7735005622 0.55459406569 -0.86420660747 2.7729447015 0.66452545449
          -0.065808157055 2.5381784989 -0.31732632507 -0.15390877312 2.5413489387 -0.20724372996
          -0.24378039321 2.5425617993 -0.09787443444 -0.33219469651 2.5444927468 0.010910067839
          -0.42190546803 2.5450293219 0.11945514554 -0.51022628481 2.5465825362 0.22902179347
          -0.60014128605 2.5485430211 0.33782437867 -0.68990918505 2.5498862198 0.44638761682
          -0.77912614346 2.5518429557 0.55476955989 -0.86696675961 2.5522738534 0.66584647017
          -0.067894087817 2.3171125534 -0.31279981386 -0.15497767977 2.3193551573 -0.20466287319
          -0.24459600732 2.3200344492 -0.095966143724 -0.33407402259 2.321219723 0.012709954158
          -0.42257484233 2.3233631349 0.12207363034 -0.51217920117 2.3244307859 0.23085844957
          -0.601729685 2.3258485482 0.34022935433 -0.69005376855 2.3275246493 0.44803502228
          -0.78049965358 2.3299403088 0.55648269594 -0.87003051009 2.3313613238 0.6660838928
          -0.067539477161 2.0950481611 -0.31208780663 -0.15645757314 2.09670238 -0.20370949257
          -0.24580862603 2.0976905855 -0.094810919025 -0.33500596967 2.0991129689 0.013562560353
          -0.42380439146 2.1011441055 0.12299509644 -0.51268616959 2.102106592 0.23225455463
          -0.60238060908 2.1036165238 0.34153054773 -0.69207099756 2.1061703568 0.45034428107
          -0.78114115192 2.1077930762 0.55940687415 -0.86905269397 2.108518518 0.6692366723
          -0.069258721952 1.8731616446 -0.31035666546 -0.15808870343 1.8742636039 -0.20272118786
          -0.24735111256 1.8751865542 -0.093099542825 -0.33600578323 1.8768967247 0.015648930744
          -0.42554229827 1.8798595906 0.12436435398 -0.51406521511 1.8801856364 0.23460041699
          -0.60347033318 1.8815286079 0.34363904813 -0.69255271754 1.8833342764 0.45242044472
          -0.78247305112 1.8858498377 0.56118931092 -0.87086596154 1.8875669821 0.67113167938
          -0.070830108623 1.6493266235 -0.30835752901 -0.15832988981 1.653670855 -0.20076184202
          -0.24847296487 1.653408744 -0.092769396892 -0.33850373103 1.6544364738 0.016307870777
          -0.42671390627 1.6561678389 0.12661165114 -0.51549627592 1.6568714689 0.23793440407
          -0.60515633544 1.6596679522 0.34737315281 -0.69367633335 1.6610139476 0.45579362991
          -0.78353892894 1.6640635811 0.56427291943 -0.8726374628 1.6647242437 0.67225671703
          -0.07321311573 1.4289956823 -0.30669757391 -0.15986928635 1.4290220991 -0.19819874271
          -0.24935319877 1.4313360768 -0.090586544098 -0.3385001413 1.4333039441 0.018323519553
          -0.42831849959 1.434343432 0.12786833689 -0.51656461501 1.4349143023 0.23933811636
          -0.60572179905 1.4380262765 0.3492801967 -0.69506259933 1.4397880824 0.45840894081
          -0.7842595895 1.4411730028 0.56576401046 -0.87601419398 1.4430566403 0.67451177494
          -0.073166611892 1.2045569295 -0.30685575827 -0.16255174383 1.2077165943 -0.19701088653
          -0.25026674577 1.208114278 -0.088496556582 -0.33836689667 1.2102970619 0.021758541822
          -0.42840940073 1.2126607138 0.12899964572 -0.51831452924 1.2139606751 0.24308968909
          -0.60686663138 1.2153526523 0.35074733164 -0.6962060076 1.2164726271 0.46046152229
          -0.78590036133 1.2184176164 0.56884443526 -0.87526754776 1.2188421208 0.6772671121
          -0.073615993912 0.97930094137 -0.29953590642 -0.16405388057 0.98989280011 -0.19889245833
          -0.25530656875 0.98809188188 -0.081441942076 -0.34106517811 0.98949630544 0.02340159054
          -0.42712875464 0.99359750178 0.13420292231 -0.52061624097 0.99277101556 0.2434825689
          -0.60801436346 0.99275163967 0.35498177906 -0.70120644865 0.99639410006 0.4608408814
          -0.7862847476 0.99932241529 0.57511387735 -0.87613140874 0.99964170052 0.67872326919
          0.044673644379 2.9814777876 -0.45217665068 -0.042965222702 2.9839007522 -0.34317909627
          -0.13136313078 2.984282211 -0.23418586597 -0.21993333194 2.9839422833 -0.1252262864
          -0.31079637756 2.987367905 -0.016601942442 -0.39926356919 2.9881964036 0.092197119943
          -0.48793302738 2.9901163036 0.20152782938 -0.57752210753 2.9913913405 0.309841254
          -0.66763847647 2.9949563361 0.4188405612 -0.76457154502 2.9858750869 0.53481020257
          0.045173743361 2.7598182094 -0.451133807 -0.044866594425 2.7615668671 -0.34062338618
          -0.13319705378 2.7638737566 -0.23240979605 -0.22203497366 2.764433513 -0.12346532475
          -0.31060483586 2.7663699251 -0.015282403371 -0.40038076428 2.7678723484 0.093843994595
          -0.48987393111 2.7689474772 0.2021515453 -0.57861665272 2.7715499742 0.31058783875
          -0.66885694146 2.7729137908 0.42010144769 -0.75802334506 2.7725850628 0.53047047686
          0.044106941514 2.5367219535 -0.44842614529 -0.04485982266 2.5397231965 -0.33944555537
          -0.13460666023 2.5407411063 -0.23054968213 -0.22403267293 2.5419586787 -0.12189207395
          -0.3131522782 2.5429792905 -0.012608997571 -0.40277047972 2.5449409767 0.095560846016
          -0.49117103553 2.5468197792 0.2045605146 -0.58015863822 2.5486400771 0.31328027568
          -0.66992694091 2.5502655343 0.42138046874 -0.75855512948 2.5513739666 0.53093722882
          0.040833783811 2.316383496 -0.4477888775 -0.04704503788 2.3170963329 -0.33759563328
          -0.13556856009 2.31875961 -0.22917970197 -0.22483290428 2.3197976156 -0.12014156112
          -0.31385912824 2.3213174342 -0.011442541443 -0.4031963717 2.3227174143 0.097390164265
          -0.49251500251 2.3239432176 0.20605083539 -0.58161110166 2.3258092872 0.31537382529
          -0.67193617642 2.328673588 0.42426881307 -0.76126748862 2.330843912 0.53412059414
          0.040652568515 2.0942134428 -0.44579969938 -0.048530718882 2.0951449244 -0.33674072346
          -0.13651198288 2.0964305303 -0.22758579929 -0.22612216985 2.0983809356 -0.11967286916
          -0.31563980137 2.1000476529 -0.010187061073 -0.4040477556 2.0997354882 0.098842683433
          -0.4930793675 2.1027513313 0.20906254366 -0.58231852231 2.1035885825 0.31690310175
          -0.67334323311 2.1064731287 0.42674365463 -0.76195556235 2.1081369464 0.53533135849
          0.040131015257 1.8715141662 -0.44405229438 -0.049254187609 1.8734455379 -0.3353549308
          -0.13830857609 1.8742256543 -0.22644422725 -0.22737700196 1.8755858151 -0.11716317087
          -0.31685871083 1.8771999737 -0.010024629354 -0.4052715337 1.8781293453 0.10315657651
          -0.49421765908 1.8799343923 0.21038419712 -0.58377171929 1.8815390185 0.31934958828
          -0.67361588336 1.884807998 0.42904273955 -0.7631042367 1.8852641371 0.53684257376
          0.038697952999 1.6498426331 -0.44284894465 -0.049869133031 1.651100654 -0.33369764836
          -0.1394201275 1.6522240127 -0.22336856668 -0.22725417677 1.6534320157 -0.11501946708
          -0.3180675333 1.6549100182 -0.0058121059059 -0.40695070727 1.6555215256 0.1046036483
          -0.4952197547 1.6581312737 0.21330568207 -0.58598440694 1.6604352805 0.32129525039
          -0.67425388642 1.6624953143 0.43065216839 -0.76401423135 1.6643228811 0.5410309912
          0.036566368786 1.4274632778 -0.44008602532 -0.050879458341 1.4283618912 -0.33083323193
          -0.13958553372 1.4322261571 -0.22391104446 -0.22984574837 1.4324626514 -0.11511280361
          -0.31850543795 1.4336417389 -0.0050851663571 -0.40722937685 1.4340507636 0.10645512789
          -0.49669161107 1.4366268544 0.21608803608 -0.58462979293 1.4395643522 0.32476261718
          -0.67523756426 1.4393185477 0.43265960613 -0.76525826948 1.4423642444 0.5432630981
          0.035360988677 1.2067336026 -0.43963241802 -0.052199382181 1.2057746773 -0.33093038195
          -0.14090525306 1.2072650067 -0.22156926127 -0.22965820364 1.2088979057 -0.11276204475
          -0.31909692394 1.2098813607 -0.0036865231152 -0.40864323923 1.2104469333 0.10958091774
          -0.49776746181 1.2136322896 0.21871327826 -0.58666699929 1.2148350609 0.32701091954
          -0.67578930661 1.2172593277 0.43659742112 -0.76553780905 1.2205712536 0.54561130526
          0.03518036715 0.98082379969 -0.43537148072 -0.055311269691 0.98307874754 -0.32389616146
          -0.14133818842 0.98456877481 -0.21769826466 -0.23111435282 0.98739206192 -0.10887663387
          -0.32299926422 0.98502626468 -0.0049133099991 -0.41210339679 0.98690621603 0.11686498239
          -0.49929562381 0.99137377694 0.21880241395 -0.58807332613 0.99299934602 0.32945919528
          -0.68039766407 0.99490822723 0.43482021797 -0.76610480426 0.99750945724 0.54694111091
          0.1557250888 2.9826982525 -0.58139109502 0.065460559836 2.9802495039 -0.47762655762
          -0.023418445417 2.9845689028 -0.36764744083 -0.11261709546 2.983655255 -0.25875287119
          -0.20217959725 2.9872977739 -0.15004573037 -0.2906649524 2.9875239734 -0.040949188093
          -0.37968126301 2.9884100946 0.06962440302 -0.46866182181 2.9923700646 0.17683424454
          -0.55884615005 2.992924574 0.28654252635 -0.651123239 2.9943427046 0.39609117677
          0.15446055142 2.761624807 -0.58172981119 0.065277631144 2.759428466 -0.4751189821
          -0.02455299035 2.7612558128 -0.36600293798 -0.11268123414 2.7628884083 -0.25763685366
          -0.20261538355 2.7639836447 -0.14779779673 -0.2918760693 2.7659126486 -0.03895602434
          -0.37878091017 2.7671005061 0.071032246985 -0.47050405239 2.7691207157 0.17877065138
          -0.55878821366 2.7708119151 0.28853973241 -0.64770526008 2.7732931169 0.39563723505
          0.15221000807 2.5377351855 -0.58464008621 0.064135052262 2.5382609891 -0.4723498399
          -0.025818806729 2.5398206448 -0.3643403611 -0.11472230129 2.5407617849 -0.25477733797
          -0.20382221939 2.5418530086 -0.14613660702 -0.29298595447 2.5434024288 -0.037292244768
          -0.38222197535 2.5452846475 0.071526577684 -0.47209367884 2.5470546941 0.18093515603
          -0.56078560175 2.5487543644 0.2890451065 -0.64981879435 2.5515939974 0.40004531779
          0.15094832249 2.3158604841 -0.57941323744 0.061717127107 2.3149221753 -0.47115000564
          -0.026835018683 2.3170992114 -0.36128467833 -0.11584972113 2.3182989639 -0.25336717669
          -0.20489098555 2.3195723829 -0.1442565795 -0.29407091474 2.3209909902 -0.035512037426
          -0.38341447819 2.3226165636 0.073407252167 -0.47287251028 2.3247051953 0.18212399184
          -0.56247719023 2.3258018021 0.29163817028 -0.65174898609 2.3290148703 0.39936043098
          0.15112388343 2.0926119116 -0.57727515433 0.061298689605 2.0948391849 -0.46962220233
          -0.028300647064 2.0951682508 -0.36053219987 -0.11684052776 2.0952788469 -0.25048529345
          -0.20623972582 2.0975854444 -0.14265274919 -0.29538424499 2.0989384379 -0.033738936837
          -0.38469891699 2.1001602386 0.074685513274 -0.47393620505 2.1028157862 0.18437999871
          -0.56328973353 2.1047013359 0.293306941 -0.65173455015 2.1061264474 0.40091513
          0.15010656078 1.8709050758 -0.57826451839 0.059623255663 1.8721771229 -0.46858086057
          -0.029175730883 1.8730186687 -0.35967859036 -0.11846542155 1.8742014319 -0.25055218516
          -0.20785353249 1.8755621447 -0.14219549508 -0.29654975868 1.8766836996 -0.030755790484
          -0.38570628825 1.8785758641 0.077589144223 -0.47481540526 1.8805718406 0.18624563045
          -0.56376948038 1.882364769 0.29555051443 -0.65308187126 1.8846997109 0.40487703889
          0.14792816194 1.648385753 -0.57594578613 0.058490198339 1.6498874346 -0.46669372216
          -0.030350469949 1.6509411475 -0.35787350675 -0.11925929832 1.6522023275 -0.24917725753
          -0.20854416968 1.6529826855 -0.14012404254 -0.2978956453 1.6538221114 -0.028766139536
          -0.38617865005 1.656102418 0.079231609163 -0.47606533982 1.6584179058 0.188083645