<?xml version="1.0"?>
<VTKFile type="UnstructuredGrid" version="0.1" byte_order="LittleEndian" compressor="vtkZLibDataCompressor">
  <UnstructuredGrid>
    <FieldData>
      <DataArray type="Float64" Name="TIME" NumberOfTuples="1" format="ascii" RangeMin="0.98924733498" RangeMax="0.98924733498">
        0.98924733498
      </DataArray>
    </FieldData>
    <Piece NumberOfPoints="1000" NumberOfCells="0">
      <PointData>
        <DataArray type="Float64" Name="Damage" format="ascii" RangeMin="0" RangeMax="0.5081300813">
          0 0 0 0 0 0
          0 0 0 0 0 0.027932960894
          0 0 0 0 0 0
          0.027932960894 0 0 0.055084745763 0.071428571429 0.040345821326
          0.014164305949 0.012987012987 0.040345821326 0.071428571429 0.055084745763 0
          0 0.067669172932 0.11239193084 0.1074168798 0.037688442211 0.034562211982
          0.1074168798 0.11239193084 0.067669172932 0 0 0.074349442379
          0.16147308782 0.16834170854 0.12376237624 0.11286681716 0.16834170854 0.16147308782
          0.074349442379 0 0 0.084459459459 0.2 0.25806451613
          0.33860045147 0.39211618257 0.25806451613 0.2 0.084459459459 0
          0 0.093984962406 0.25360230548 0.36061381074 0.41959798995 0.46774193548
          0.36061381074 0.25360230548 0.093984962406 0 0 0.10593220339
          0.31493506494 0.40057636888 0.4447592068 0.49090909091 0.40057636888 0.31493506494
          0.10593220339 0 0 0.17318435754 0.3686440678 0.43984962406
          0.44981412639 0.5 0.43984962406 0.3686440678 0.17318435754 0
          0.016129032258 0.18791946309 0.36734693878 0.44343891403 0.46428571429 0.5081300813
          0.44343891403 0.36734693878 0.18791946309 0.008064516129 0 0
          0 0 0 0 0 0
          0 0 0 0.027906976744 0 0
          0 0 0 0 0.027906976744 0
          0 0.056338028169 0.072776280323 0.040669856459 0.014117647059 0.012931034483
          0.040669856459 0.072776280323 0.056338028169 0 0 0.06875
          0.11483253589 0.10828025478 0.0375782881 0.034416826004 0.10828025478 0.11483253589
          0.06875 0 0 0.074303405573 0.16235294118 0.16910229645
          0.12371134021 0.11257035647 0.16910229645 0.16235294118 0.074303405573 0
          0 0.084269662921 0.20043103448 0.25812619503 0.33771106942 0.39242685026
          0.25812619503 0.20043103448 0.084269662921 0 0 0.09375
          0.25358851675 0.36093418259 0.41962421712 0.46845124283 0.36093418259 0.25358851675
          0.09375 0 0 0.10563380282 0.3153638814 0.4019138756
          0.44470588235 0.49137931034 0.4019138756 0.3153638814 0.10563380282 0
          0 0.16744186047 0.36971830986 0.440625 0.44582043344 0.49719101124
          0.440625 0.36971830986 0.16744186047 0 0.013422818792 0.17877094972
          0.3686440678 0.44360902256 0.44981412639 0.5 0.43984962406 0.3686440678
          0.17877094972 0.006711409396 0 0 0 0
          0 0 0 0 0 0
          0 0.024647887324 0 0 0 0
          0 0 0.024647887324 0 0 0.051212938005
          0.06875 0.038817005545 0.012635379061 0.011666666667 0.038817005545 0.06875
          0.051212938005 0 0 0.064593301435 0.10905730129 0.10491803279
          0.036858974359 0.034023668639 0.10491803279 0.10905730129 0.064593301435 0
          0 0.070588235294 0.15523465704 0.16506410256 0.12283464567 0.11271676301
          0.16506410256 0.15523465704 0.070588235294 0 0 0.081896551724
          0.19333333333 0.25443786982 0.33959537572 0.38985313752 0.25443786982 0.19333333333
          0.081896551724 0 0 0.093301435407 0.24768946396 0.35573770492
          0.41987179487 0.46449704142 0.35573770492 0.24768946396 0.093301435407 0
          0 0.10781671159 0.30833333333 0.39556377079 0.4440433213 0.48666666667
          0.39556377079 0.30833333333 0.10781671159 0 0 0.16197183099
          0.35579514825 0.43062200957 0.44470588235 0.49137931034 0.43062200957 0.35579514825
          0.16197183099 0 0 0.16101694915 0.3538961039 0.42939481268
          0.4447592068 0.49090909091 0.42939481268 0.3538961039 0.16101694915 0
          0 0 0 0 0 0
          0 0 0 0 0 0.025
          0 0 0 0 0 0
          0.025 0 0 0.05023923445 0.068391866913 0.039344262295
          0.012820512821 0.011834319527 0.039344262295 0.068391866913 0.05023923445 0
          0 0.063694267516 0.10819672131 0.10465116279 0.036984352774 0.034120734908
          0.10465116279 0.10819672131 0.063694267516 0 0 0.070981210856
          0.15544871795 0.16500711238 0.12290502793 0.11282051282 0.16500711238 0.15544871795
          0.070981210856 0 0 0.082217973231 0.19378698225 0.25459317585
          0.33974358974 0.38981042654 0.25459317585 0.19378698225 0.082217973231 0
          0 0.093418259023 0.24918032787 0.35610465116 0.41963015647 0.46456692913
          0.35610465116 0.24918032787 0.093418259023 0 0 0.10765550239
          0.30868761553 0.39508196721 0.44391025641 0.48668639053 0.39508196721 0.30868761553
          0.10765550239 0 0 0.1625 0.35645933014 0.43099787686
          0.44467640919 0.4913957935 0.43099787686 0.35645933014 0.1625 0
          0 0.16165413534 0.35446685879 0.42966751918 0.44472361809 0.49078341014
          0.42966751918 0.35446685879 0.16165413534 0 0 0
          0 0 0 0 0 0
          0 0 0 0.02786377709 0 0
          0 0 0 0 0.02786377709 0
          0 0.054117647059 0.070397111913 0.040064102564 0.014173228346 0.013005780347
          0.040064102564 0.070397111913 0.054117647059 0 0 0.066805845511
          0.11057692308 0.106685633 0.037709497207 0.034615384615 0.106685633 0.11057692308
          0.066805845511 0 0 0.074226804124 0.16062992126 0.16759776536
          0.12362637363 0.11292346299 0.16759776536 0.16062992126 0.074226804124 0
          0 0.084427767355 0.19942196532 0.25769230769 0.33877038896 0.39145496536
          0.25769230769 0.19942196532 0.084427767355 0 0 0.093945720251
          0.25320512821 0.35988620199 0.41899441341 0.46666666667 0.35988620199 0.25320512821
          0.093945720251 0 0 0.10588235294 0.31407942238 0.39903846154
          0.44409448819 0.48988439306 0.39903846154 0.31407942238 0.10588235294 0
          0 0.16718266254 0.36705882353 0.43841336117 0.44536082474 0.49530956848
          0.43841336117 0.36705882353 0.16718266254 0 0 0.16728624535
          0.36543909348 0.43718592965 0.44554455446 0.49435665914 0.43718592965 0.36543909348
          0.16728624535 0 0 0 0 0
          0 0 0 0 0 0
          0 0.025280898876 0 0 0 0
          0 0 0.025280898876 0 0 0.049568965517
          0.066666666667 0.038461538462 0.013005780347 0.012016021362 0.038461538462 0.066666666667
          0.049568965517 0 0 0.06309751434 0.1050295858 0.10367454068
          0.037179487179 0.034360189573 0.10367454068 0.1050295858 0.06309751434 0
          0 0.071294559099 0.15462427746 0.1641025641 0.12296110414 0.11316397229
          0.1641025641 0.15462427746 0.071294559099 0 0 0.082616179002
          0.19359145527 0.25473933649 0.34064665127 0.38930481283 0.25473933649 0.19359145527
          0.082616179002 0 0 0.093690248566 0.24852071006 0.35564304462
          0.41923076923 0.46327014218 0.35564304462 0.24852071006 0.093690248566 0
          0 0.10775862069 0.30833333333 0.39349112426 0.4436416185 0.48598130841
          0.39349112426 0.30833333333 0.10775862069 0 0 0.16292134831
          0.35560344828 0.43021032505 0.44465290807 0.49053356282 0.43021032505 0.35560344828
          0.16292134831 0 0 0.16216216216 0.35324675325 0.42857142857
          0.44469525959 0.48962655602 0.42857142857 0.35324675325 0.16216216216 0
          0 0 0 0 0 0
          0 0 0 0 0 0.025
          0 0 0 0 0 0
          0.025 0 0 0.05023923445 0.068391866913 0.039344262295
          0.012820512821 0.011834319527 0.039344262295 0.068391866913 0.05023923445 0
          0 0.063694267516 0.10819672131 0.10465116279 0.036984352774 0.034120734908
          0.10465116279 0.10819672131 0.063694267516 0 0 0.070981210856
          0.15544871795 0.16500711238 0.12290502793 0.11282051282 0.16500711238 0.15544871795
          0.070981210856 0 0 0.082217973231 0.19378698225 0.25459317585
          0.33974358974 0.38981042654 0.25459317585 0.19378698225 0.082217973231 0
          0 0.093418259023 0.24918032787 0.35610465116 0.41963015647 0.46456692913
          0.35610465116 0.24918032787 0.093418259023 0 0 0.10765550239
          0.30868761553 0.39508196721 0.44391025641 0.48668639053 0.39508196721 0.30868761553
          0.10765550239 0 0 0.1625 0.35645933014 0.43099787686
          0.44467640919 0.4913957935 0.43099787686 0.35645933014 0.1625 0
          0 0.16165413534 0.35446685879 0.42966751918 0.44472361809 0.49078341014
          0.42966751918 0.35446685879 0.16165413534 0 0 0
          0 0 0 0 0 0
          0 0 0 0.024647887324 0 0
          0 0 0 0 0.024647887324 0
          0 0.051212938005 0.06875 0.038817005545 0.012635379061 0.011666666667
          0.038817005545 0.06875 0.051212938005 0 0 0.064593301435
          0.10905730129 0.10491803279 0.036858974359 0.034023668639 0.10491803279 0.10905730129
          0.064593301435 0 0 0.070588235294 0.15523465704 0.16506410256
          0.12283464567 0.11271676301 0.16506410256 0.15523465704 0.070588235294 0
          0 0.081896551724 0.19333333333 0.25443786982 0.33959537572 0.38985313752
          0.25443786982 0.19333333333 0.081896551724 0 0 0.093301435407
          0.24768946396 0.35573770492 0.41987179487 0.46449704142 0.35573770492 0.24768946396
          0.093301435407 0 0 0.10781671159 0.30833333333 0.39556377079
          0.4440433213 0.48666666667 0.39556377079 0.30833333333 0.10781671159 0
          0 0.16197183099 0.35579514825 0.43062200957 0.44470588235 0.49137931034
          0.43062200957 0.35579514825 0.16197183099 0 0 0.16101694915
          0.3538961039 0.42939481268 0.4447592068 0.49090909091 0.42939481268 0.3538961039
          0.16101694915 0 0 0 0 0
          0 0 0 0 0 0
          0 0.027906976744 0 0 0 0
          0 0 0.027906976744 0 0 0.056338028169
          0.072776280323 0.040669856459 0.014117647059 0.012931034483 0.040669856459 0.072776280323
          0.056338028169 0 0 0.06875 0.11483253589 0.10828025478
          0.0375782881 0.034416826004 0.10828025478 0.11483253589 0.06875 0
          0 0.074303405573 0.16235294118 0.16910229645 0.12371134021 0.11257035647
          0.16910229645 0.16235294118 0.074303405573 0 0 0.084269662921
          0.20043103448 0.25812619503 0.33771106942 0.39242685026 0.25812619503 0.20043103448
          0.084269662921 0 0 0.09375 0.25358851675 0.36093418259
          0.41962421712 0.46845124283 0.36093418259 0.25358851675 0.09375 0
          0 0.10563380282 0.3153638814 0.4019138756 0.44470588235 0.49137931034
          0.4019138756 0.3153638814 0.10563380282 0 0 0.16744186047
          0.36971830986 0.440625 0.44582043344 0.49719101124 0.440625 0.36971830986
          0.16744186047 0 0.006711409396 0.16759776536 0.3686440678 0.43984962406
          0.44609665428 0.49662162162 0.43984962406 0.3686440678 0.17318435754 0.006711409396
          0 0 0 0 0 0
          0 0 0 0 0 0.027932960894
          0 0 0 0 0 0
          0.027932960894 0 0 0.055084745763 0.071428571429 0.040345821326
          0.014164305949 0.012987012987 0.040345821326 0.071428571429 0.055084745763 0
          0 0.067669172932 0.11239193084 0.1074168798 0.037688442211 0.034562211982
          0.1074168798 0.11239193084 0.067669172932 0 0 0.074349442379
          0.16147308782 0.16834170854 0.12376237624 0.11286681716 0.16834170854 0.16147308782
          0.074349442379 0 0 0.084459459459 0.2 0.25806451613
          0.33860045147 0.39211618257 0.25806451613 0.2 0.084459459459 0
          0 0.093984962406 0.25360230548 0.36061381074 0.41959798995 0.46774193548
          0.36061381074 0.25360230548 0.093984962406 0 0 0.10593220339
          0.31493506494 0.40057636888 0.4447592068 0.49090909091 0.40057636888 0.31493506494
          0.10593220339 0 0 0.16759776536 0.3686440678 0.43984962406
          0.44981412639 0.5 0.43984962406 0.3686440678 0.16759776536 0.006711409396
          0.016129032258 0.1744966443 0.36734693878 0.44343891403 0.45535714286 0.50406504065
          0.44343891403 0.36734693878 0.18120805369 0.024193548387
        </DataArray>
        <DataArray type="Float64" Name="Displacement" NumberOfComponents="3" format="ascii" RangeMin="0.21400237989" RangeMax="2.1700070043">
          0.12433876844 1.5372380883 -0.50266262803 0.054714148231 1.6018319174 -0.42608877401
          -0.0062498597164 1.6684009197 -0.34734054672 -0.067221999704 1.726134759 -0.26932454126
          -0.13016382555 1.7917304468 -0.19161161013 -0.19836078135 1.8532323304 -0.11164643181
          -0.26387159439 1.9160443129 -0.034127882863 -0.33213765243 1.9814342756 0.040584196588
          -0.40034501728 2.0476840784 0.1316938367 -0.46831969121 2.1081938256 0.21242847969
          0.064963398071 1.3711529095 -0.42943173351 -0.00076300655712 1.433740221 -0.3495443348
          -0.070608676987 1.5014117999 -0.26779496923 -0.13070883769 1.5642920368 -0.19103029982
          -0.19795073476 1.6277766185 -0.112189699 -0.26273257302 1.6911673128 -0.033089162948
          -0.32612173355 1.7541380002 0.046317108383 -0.39547891767 1.8170355465 0.12700500432
          -0.45346464115 1.8801542943 0.20327705501 -0.52034138535 1.9447496877 0.28484609675
          0.0054906716277 1.2083057053 -0.35379675366 -0.059216745383 1.2747595987 -0.27048078933
          -0.12508965723 1.3384845059 -0.19319441947 -0.19179247357 1.4010386736 -0.11398359858
          -0.25782332622 1.4628938563 -0.034187896635 -0.32079123732 1.5264533186 0.043673076126
          -0.38642732547 1.5900719095 0.12254618186 -0.45140249258 1.6534151468 0.20168337429
          -0.51674917 1.7167123906 0.27798054792 -0.57770076523 1.7808569264 0.36182053443
          -0.056230857182 1.0474737934 -0.27460435502 -0.12173123613 1.1114559061 -0.19601552419
          -0.1865858786 1.1748937374 -0.11591705963 -0.25190282128 1.2379367286 -0.036869982513
          -0.31634540024 1.3006357594 0.042660710404 -0.38209761028 1.3628002937 0.12072096423
          -0.44595586656 1.4280630034 0.20006401972 -0.51189138577 1.4909018502 0.27786397567
          -0.57614297772 1.5562235555 0.35682978544 -0.6397393313 1.6187183774 0.43539214827
          -0.11969236154 0.88637534975 -0.19728193588 -0.18214019698 0.94929777852 -0.11815735351
          -0.24765880268 1.0109657743 -0.039310956079 -0.31327404563 1.0748038357 0.038267846199
          -0.37800991715 1.1374741573 0.1214883388 -0.44256305484 1.2010093084 0.19800806083
          -0.50697414475 1.2661924867 0.27712963904 -0.57115882377 1.3283247169 0.35635640933
          -0.63779409488 1.3921682486 0.43345337521 -0.70210359291 1.456066446 0.51431830797
          -0.18008093017 0.7217485523 -0.12003176497 -0.24270840227 0.78556338309 -0.042434715233
          -0.30859534543 0.84767103664 0.038827666766 -0.37370170168 0.91122147757 0.11676106067
          -0.43991601482 0.97417942834 0.19576952634 -0.50306139741 1.0386227661 0.27713688292
          -0.56751974316 1.101906102 0.35402977202 -0.63258625888 1.1649892853 0.43321394309
          -0.69565749785 1.2290934467 0.51171118818 -0.76000114212 1.2929584258 0.5946924789
          -0.23977524458 0.55817239762 -0.042452810708 -0.3042639188 0.62323838115 0.035982093484
          -0.36922065092 0.6837410537 0.11496965285 -0.43480801195 0.74738167929 0.19384888729
          -0.49953637582 0.81079622188 0.2726999803 -0.56253865307 0.87512680473 0.35413047381
          -0.62818851028 0.94100325283 0.43328733336 -0.69211624103 1.0024444835 0.5115143938
          -0.75855225924 1.067411265 0.58801496463 -0.82340768114 1.129955347 0.66807685716
          -0.29759487259 0.38871482433 0.031258303425 -0.36488863482 0.45852160984 0.11153184627
          -0.43085325852 0.52054131838 0.19064928866 -0.49571400922 0.58370105003 0.26997634338
          -0.56148267258 0.64754161731 0.34718233786 -0.62285111162 0.71440566179 0.43267995258
          -0.68812424078 0.77762140553 0.51096741049 -0.75395807265 0.83888595524 0.58778819107
          -0.81841009499 0.90315744783 0.66729343664 -0.87775378099 0.96534100049 0.74881929169
          -0.3570077149 0.22692264005 0.1057374324 -0.42444147473 0.29553100148 0.18806707212
          -0.49077668944 0.35817399294 0.26472686556 -0.55710317795 0.41938813202 0.34510759383
          -0.62134017396 0.48425749127 0.42620067904 -0.68275354259 0.54927168635 0.50926245423
          -0.74756930957 0.61230188305 0.58837307292 -0.81312898275 0.67871957753 0.66488255611
          -0.87813694149 0.73803273319 0.74341098645 -0.93957643442 0.80559399824 0.82165846715
          -0.42270607681 0.0725306219 0.18295775733 -0.48699412227 0.12663800277 0.25956175956
          -0.55013931384 0.19173636862 0.34241461389 -0.62098076636 0.25671735884 0.41851483977
          -0.6833699858 0.33866745712 0.49474013653 -0.74410905126 0.39169660937 0.58175335834
          -0.80640336067 0.45570246777 0.66805488418 -0.87329383518 0.51663329656 0.74872231873
          -0.93457165726 0.5788869287 0.82568382437 -1.0005951926 0.64952095423 0.89477661655
          0.20525561983 1.4642328498 -0.60702018064 0.14008008013 1.5270287836 -0.52297897612
          0.075440905668 1.5885577389 -0.44555629193 0.010403471837 1.6506767892 -0.36733528397
          -0.050719156595 1.714330554 -0.28877028887 -0.11728646353 1.7781295125 -0.20943571866
          -0.18482956576 1.8427534832 -0.12872326585 -0.24927346623 1.9050168298 -0.052080437097
          -0.31528003078 1.9684567515 0.02418994977 -0.38077989924 2.0335672375 0.10343640424
          0.1473799188 1.3013904343 -0.52669807207 0.079945268301 1.3614281405 -0.44788651418
          0.015344153306 1.4263176048 -0.3673128104 -0.050471750412 1.488766823 -0.29021255618
          -0.11478289456 1.5522166342 -0.21086806643 -0.18133296785 1.6151019815 -0.13199589263
          -0.24503673463 1.6804793683 -0.053118058074 -0.31043707749 1.7416923776 0.02509912172
          -0.37271866471 1.8055226531 0.10477111369 -0.43991583571 1.8691237368 0.17874628509
          0.086105663372 1.1364839234 -0.45022836688 0.019889135047 1.1991649794 -0.37057553196
          -0.045362549139 1.2627582864 -0.29121281991 -0.11089792438 1.3260333046 -0.21274768418
          -0.1760980857 1.389497885 -0.13442240228 -0.24054958051 1.4526173578 -0.054215569684
          -0.30577737524 1.5160132591 0.025155408917 -0.36959278689 1.5785297905 0.10254254622
          -0.43448404942 1.6425309695 0.18121202209 -0.49855203363 1.7069167176 0.25881485724
          0.024892205494 0.9728967691 -0.37374882837 -0.040557738251 1.0356184591 -0.29382216852
          -0.10627794489 1.0994176798 -0.21342667792 -0.17043940996 1.1625651601 -0.1350342464
          -0.23610964741 1.2261492109 -0.056097768464 -0.30126366466 1.2890780451 0.022717798814
          -0.36552225174 1.3522641154 0.10208449146 -0.43131655876 1.4151351741 0.18004332622
          -0.49494416623 1.4801718163 0.25857058084 -0.56086896501 1.5438928256 0.33796800426
          -0.035335560518 0.81121333201 -0.29697705545 -0.10079512745 0.87332352981 -0.21720828644
          -0.16622543672 0.93632283479 -0.13714340347 -0.23156693608 0.99920966243 -0.05778173227
          -0.29658043272 1.0621091439 0.020999436674 -0.36171199894 1.1256937088 0.10025545413
          -0.42574228381 1.189594678 0.17909698998 -0.49065518581 1.2533679273 0.25719254032
          -0.55481974205 1.3175135691 0.3356088105 -0.62130228307 1.3818420531 0.41191687094
          -0.09711434144 0.64775555461 -0.2187049321 -0.16224440591 0.70994088198 -0.14005731469
          -0.22726039882 0.77282412259 -0.060370870047 -0.29250378789 0.83685754402 0.019495176419
          -0.35804141773 0.89880555735 0.098084363377 -0.4221908916 0.96364722886 0.17876075987
          -0.48679415876 1.026499846 0.25611516785 -0.55135282516 1.0902956095 0.33482824338
          -0.61556703448 1.1533999126 0.41379971453 -0.68248835431 1.2181863762 0.49093518786
          -0.15743127317 0.48456891219 -0.14228055918 -0.22327872366 0.54650054236 -0.063467269721
          -0.28787550066 0.60918306832 0.016070662744 -0.35281084918 0.67296478536 0.095075443467
          -0.41853470764 0.7362677623 0.17462012926 -0.48236522794 0.80110917702 0.25591502735
          -0.54618142679 0.86412761053 0.33373582479 -0.61187331479 0.92684881766 0.41258666023
          -0.67605016716 0.99175178358 0.49191817746 -0.74208134999 1.0557639738 0.56864349073
          -0.21932979935 0.32197361494 -0.064657351878 -0.2839101021 0.38281517818 0.012631391535
          -0.34925376584 0.44640847029 0.092938119086 -0.4139085082 0.50965033149 0.17235894901
          -0.48089048181 0.57189007472 0.2512179494 -0.54256147795 0.63708926256 0.33410409609
          -0.60719707741 0.70036100758 0.41115393108 -0.67192028843 0.76410040433 0.49071202456
          -0.73615355416 0.82901364622 0.56817164241 -0.80305902221 0.89194438455 0.64567464957
          -0.27840241391 0.15621772011 0.0095687682343 -0.34514991183 0.22143847481 0.091087830632
          -0.4099530036 0.2821803797 0.1694858304 -0.47549584568 0.34459465959 0.24859969102
          -0.54086184134 0.40929272415 0.32824671498 -0.60282470981 0.47349137086 0.41081030741
          -0.66657045197 0.53876450624 0.4907826325 -0.73221554698 0.60215948878 0.56898536332
          -0.79812169477 0.66427217329 0.64588393557 -0.86045932487 0.7284605491 0.72510504068
          -0.34139499848 -0.0086601549839 0.089997423303 -0.40643620826 0.055211932721 0.16575950053
          -0.47191354027 0.11769540682 0.24731750529 -0.53743276786 0.18178083336 0.32615689464
          -0.60232041826 0.24278646803 0.4019292158 -0.66237936175 0.30873689315 0.49214043395
          -0.72809683364 0.3752459725 0.56782907855 -0.79312157619 0.4373638363 0.64634619734
          -0.8600057861 0.50035858626 0.72398058598 -0.92327139064 0.56413562962 0.80308972719
          0.28987054333 1.3918942721 -0.70290667957 0.22128404023 1.4499067607 -0.62328882603
          0.15588342444 1.5142135613 -0.54422772823 0.090326484018 1.5768664592 -0.46410476595
          0.025405177239 1.6403564777 -0.38519495883 -0.039822525628 1.703415452 -0.30746060642
          -0.10444327081 1.7666243282 -0.22854781655 -0.16876041149 1.82997251 -0.14973667826
          -0.23315726765 1.8943592586 -0.069664470255 -0.29545968393 1.9566216753 0.0040283482841
          0.22667336106 1.2245696043 -0.62495031689 0.16168936761 1.2880197346 -0.54522674158
          0.096742661254 1.3519114119 -0.46702796899 0.031050654224 1.4142511003 -0.38759869276
          -0.034280896409 1.4771052869 -0.30871703834 -0.09929056914 1.5407554221 -0.2303428799
          -0.16410612901 1.6037030579 -0.15129566911 -0.2289282928 1.6671946326 -0.074027928905
          -0.29306378346 1.7306091344 0.0052658937836 -0.35893060907 1.7943067511 0.083686648108
          0.16551316897 1.0590105614 -0.54844450604 0.10061125334 1.1245553438 -0.46878355093
          0.035402926808 1.1878909542 -0.38955420294 -0.029834810538 1.2508305552 -0.31001321702
          -0.095077698284 1.3140324606 -0.23128327284 -0.16016323849 1.3773074923 -0.15236901341
          -0.22500266117 1.4404267771 -0.074131028399 -0.28937390388 1.5041752083 0.0043603268617
          -0.3540926974 1.5675014912 0.083380398206 -0.41802715728 1.6317413682 0.16328841861
          0.10462653761 0.8981478408 -0.47046806806 0.04006745061 0.96115963848 -0.39235044308
          -0.024981126029 1.0251659308 -0.312089897 -0.090291503652 1.087780161 -0.2329754282
          -0.15523865682 1.1507134625 -0.15390682666 -0.2202551317 1.2139753367 -0.075261697201
          -0.28559094214 1.2773646148 0.0031746724844 -0.34995289916 1.3409318227 0.081594470011
          -0.41420730681 1.4051045702 0.16047908191 -0.47887281149 1.4685696719 0.2398736421
          0.044825649782 0.73440001492 -0.39424938824 -0.020202547215 0.7976391709 -0.3145806065
          -0.085669151676 0.86113624959 -0.23563238415 -0.15069038309 0.92430284007 -0.15659587316
          -0.21601749998 0.98766181466 -0.077516277304 -0.28090599395 1.0508838772 0.0019081994164
          -0.34500146136 1.1148856014 0.080573693728 -0.40985476488 1.1779182607 0.15941525201
          -0.47392635739 1.2415372356 0.23764406402 -0.53828046404 1.3052683714 0.31648820048
          -0.016465102111 0.5716241801 -0.31717280691 -0.081255713103 0.63454802292 -0.23784735735
          -0.14639376092 0.6983186973 -0.1585233924 -0.21176131704 0.76118023536 -0.080163469775
          -0.27622909696 0.82292574905 3.5053978439e-05 -0.34064017565 0.88703183083 0.079714019701
          -0.40590331571 0.95204328557 0.15807146829 -0.47050774286 1.0152919111 0.23658397202
          -0.53462801833 1.0789041259 0.315608743 -0.59969169895 1.1425726471 0.39494516195
          -0.077469713329 0.40928670552 -0.23978699343 -0.14192453187 0.47109128879 -0.16105325634
          -0.20707836522 0.53392961816 -0.081843738194 -0.27242628206 0.59785395422 -0.002961286368
          -0.33942485835 0.66027824978 0.076223963114 -0.40179847967 0.72708544798 0.15907268742
          -0.46600217819 0.7887091002 0.2355339598 -0.53030761297 0.85239482082 0.3146673538
          -0.59569708035 0.91574966135 0.392613718 -0.66104651093 0.98026978191 0.47082291318
          -0.13765149972 0.24419913579 -0.16487675101 -0.20257061634 0.30746449384 -0.085551305057
          -0.26707194016 0.37111208042 -0.0061434437505 -0.33399398069 0.4346224778 0.072665106932
          -0.3987275758 0.49768021911 0.15340001759 -0.4616038745 0.562677834 0.23530738986
          -0.5254162416 0.62724761545 0.31352693013 -0.58940044891 0.68945928227 0.39128181457
          -0.65460935975 0.75405879738 0.4711364918 -0.71988724433 0.81787886903 0.54892323642
          -0.19816886412 0.082737892555 -0.089206251767 -0.26379499317 0.144346779 -0.0081500085853
          -0.32886462055 0.20761581229 0.070543334124 -0.39430627668 0.27044547231 0.15008854759
          -0.46023438697 0.33418465774 0.22944717136 -0.52249575384 0.40033952304 0.31354534097
          -0.58655555356 0.46342231212 0.39235791107 -0.65080830623 0.52758562251 0.47006312402
          -0.71579155388 0.59109241723 0.54841443771 -0.78051480561 0.6562484334 0.6256900305
          -0.25807719412 -0.084175109454 -0.0098478243205 -0.3255641166 -0.019466251387 0.064926761909
          -0.39051699294 0.044537057219 0.14844111489 -0.45404193669 0.11053901215 0.22827672962
          -0.52082514611 0.17066247064 0.3064730918 -0.58189956275 0.23563269605 0.38932187436
          -0.64774438996 0.29972593242 0.46552278121 -0.71252047925 0.36363040887 0.54740589357
          -0.77402946299 0.43053064787 0.62723367347 -0.84135228284 0.4895288303 0.70526767802
          0.37278380351 1.3151383078 -0.79850330517 0.30361350286 1.3764006619 -0.72114131151
          0.23596097365 1.4380429259 -0.64150097863 0.17302330628 1.5018187537 -0.56324203634
          0.10659825232 1.5652374073 -0.48439107466 0.042305740048 1.6280540681 -0.40557304209
          -0.022240670022 1.6909175012 -0.32770734101 -0.087766486097 1.7546994062 -0.24705240563
          -0.15149061143 1.8189784222 -0.1704458484 -0.21574524285 1.8794303378 -0.092270039499
          0.30682743036 1.1507515005 -0.72290394292 0.24219104082 1.2133089204 -0.64366960034
          0.17766251231 1.276478302 -0.56528237095 0.1115210528 1.3390816465 -0.48562766636
          0.046946218148 1.4022768165 -0.40701566176 -0.018272339349 1.4656793357 -0.3281777053
          -0.082330881594 1.5286657712 -0.24922410539 -0.14856040655 1.5923139615 -0.17151847888
          -0.21329481114 1.6551315919 -0.092781048394 -0.27654842279 1.7195858131 -0.014950952459
          0.24635177372 0.98653122255 -0.64613582804 0.18150607322 1.0494931101 -0.56673318749
          0.11705431189 1.112436976 -0.488088328 0.05150955075 1.1755850227 -0.40884630248
          -0.013815795231 1.2390112139 -0.32968170316 -0.078964370026 1.302140342 -0.25098126335
          -0.14358997063 1.3656139507 -0.17249781644 -0.20784358522 1.4290294938 -0.093688060733
          -0.27310186174 1.4925121838 -0.015350515212 -0.33752617263 1.5564230739 0.063790783778
          0.18629440126 0.82287721679 -0.5687872045 0.12026480337 0.88591598011 -0.48980194241
          0.05633304349 0.94961419046 -0.41095698322 -0.009184250885 1.0126531727 -0.33137518567
          -0.074425991102 1.0757040651 -0.25231629026 -0.13946357121 1.1389388593 -0.17363446887
          -0.20405313621 1.2023917303 -0.095000730767 -0.26886453484 1.2658349006 -0.016974531886
          -0.33373244695 1.3296782593 0.062528850988 -0.39846626184 1.3932628755 0.14096898355
          0.12593039724 0.66009520558 -0.49240436337 0.061149642396 0.72304940535 -0.41409952199
          -0.0045299317724 0.78597093117 -0.33417811583 -0.069872845245 0.84936453687 -0.25312270687
          -0.13495802872 0.91244684688 -0.17503442735 -0.19998052202 0.97588081103 -0.09630327103
          -0.26491146973 1.0388450756 -0.017908987751 -0.32925443462 1.1028813118 0.060617044763
          -0.39292946859 1.166885351 0.13972320306 -0.45795009498 1.2311628756 0.21793648185
          0.064835250542 0.49605895739 -0.41563647762 -0.00066658706183 0.55998678352 -0.33743003421
          -0.065378947489 0.62286537681 -0.25716181754 -0.13071776327 0.6859684669 -0.17750435986
          -0.19565714898 0.74921223569 -0.098234376613 -0.26029697873 0.81318668878 -0.018869955298
          -0.3247902861 0.87605626187 0.059740244281 -0.38936313833 0.9402237465 0.13848839407
          -0.45390108492 1.0046321879 0.21703032481 -0.51895308095 1.0677707051 0.29549660745
          0.003907619315 0.334076066 -0.33900740507 -0.06117179881 0.39625526557 -0.25973282043
          -0.12610813518 0.45942238055 -0.18043392356 -0.1917233485 0.52232233558 -0.10044260246
          -0.25679779554 0.58554443483 -0.021726686659 -0.32054846507 0.65026259356 0.058671840843
          -0.38507520656 0.71381009955 0.13804326625 -0.44933159275 0.77787129483 0.2161895171