<?xml version="1.0"?>
<VTKFile type="UnstructuredGrid" version="0.1" byte_order="LittleEndian" compressor="vtkZLibDataCompressor">
  <UnstructuredGrid>
    <FieldData>
      <DataArray type="Float64" Name="TIME" NumberOfTuples="1" format="ascii" RangeMin="0.61333359313" RangeMax="0.61333359313">
        0.61333359313
      </DataArray>
    </FieldData>
    <Piece NumberOfPoints="1000" NumberOfCells="0">
      <PointData>
        <DataArray type="Float64" Name="Damage" format="ascii" RangeMin="0" RangeMax="0.49719101124">
          0 0 0 0 0 0
          0 0 0 0 0 0.027932960894
          0 0 0 0 0 0
          0.027932960894 0 0 0.055084745763 0.071428571429 0.040345821326
          0.014164305949 0.012987012987 0.040345821326 0.071428571429 0.055084745763 0
          0 0.067669172932 0.11239193084 0.1074168798 0.037688442211 0.034562211982
          0.1074168798 0.11239193084 0.067669172932 0 0 0.074349442379
          0.16147308782 0.16834170854 0.12376237624 0.11286681716 0.16834170854 0.16147308782
          0.074349442379 0 0 0.084459459459 0.2 0.25806451613
          0.33860045147 0.39211618257 0.25806451613 0.2 0.084459459459 0
          0 0.093984962406 0.25360230548 0.36061381074 0.41959798995 0.46774193548
          0.36061381074 0.25360230548 0.093984962406 0 0 0.10593220339
          0.31493506494 0.40057636888 0.4447592068 0.49090909091 0.40057636888 0.31493506494
          0.10593220339 0 0 0.16759776536 0.3686440678 0.43984962406
          0.44609665428 0.49662162162 0.43984962406 0.3686440678 0.16759776536 0
          0 0.1677852349 0.36734693878 0.43891402715 0.44642857143 0.49593495935
          0.43891402715 0.36734693878 0.1677852349 0 0 0
          0 0 0 0 0 0
          0 0 0 0.027906976744 0 0
          0 0 0 0 0.027906976744 0
          0 0.056338028169 0.072776280323 0.040669856459 0.014117647059 0.012931034483
          0.040669856459 0.072776280323 0.056338028169 0 0 0.06875
          0.11483253589 0.10828025478 0.0375782881 0.034416826004 0.10828025478 0.11483253589
          0.06875 0 0 0.074303405573 0.16235294118 0.16910229645
          0.12371134021 0.11257035647 0.16910229645 0.16235294118 0.074303405573 0
          0 0.084269662921 0.20043103448 0.25812619503 0.33771106942 0.39242685026
          0.25812619503 0.20043103448 0.084269662921 0 0 0.09375
          0.25358851675 0.36093418259 0.41962421712 0.46845124283 0.36093418259 0.25358851675
          0.09375 0 0 0.10563380282 0.3153638814 0.4019138756
          0.44470588235 0.49137931034 0.4019138756 0.3153638814 0.10563380282 0
          0 0.16744186047 0.36971830986 0.440625 0.44582043344 0.49719101124
          0.440625 0.36971830986 0.16744186047 0 0 0.16759776536
          0.3686440678 0.43984962406 0.44609665428 0.49662162162 0.43984962406 0.3686440678
          0.16759776536 0 0 0 0 0
          0 0 0 0 0 0
          0 0.024647887324 0 0 0 0
          0 0 0.024647887324 0 0 0.051212938005
          0.06875 0.038817005545 0.012635379061 0.011666666667 0.038817005545 0.06875
          0.051212938005 0 0 0.064593301435 0.10905730129 0.10491803279
          0.036858974359 0.034023668639 0.10491803279 0.10905730129 0.064593301435 0
          0 0.070588235294 0.15523465704 0.16506410256 0.12283464567 0.11271676301
          0.16506410256 0.15523465704 0.070588235294 0 0 0.081896551724
          0.19333333333 0.25443786982 0.33959537572 0.38985313752 0.25443786982 0.19333333333
          0.081896551724 0 0 0.093301435407 0.24768946396 0.35573770492
          0.41987179487 0.46449704142 0.35573770492 0.24768946396 0.093301435407 0
          0 0.10781671159 0.30833333333 0.39556377079 0.4440433213 0.48666666667
          0.39556377079 0.30833333333 0.10781671159 0 0 0.16197183099
          0.35579514825 0.43062200957 0.44470588235 0.49137931034 0.43062200957 0.35579514825
          0.16197183099 0 0 0.16101694915 0.3538961039 0.42939481268
          0.4447592068 0.49090909091 0.42939481268 0.3538961039 0.16101694915 0
          0 0 0 0 0 0
          0 0 0 0 0 0.025
          0 0 0 0 0 0
          0.025 0 0 0.05023923445 0.068391866913 0.039344262295
          0.012820512821 0.011834319527 0.039344262295 0.068391866913 0.05023923445 0
          0 0.063694267516 0.10819672131 0.10465116279 0.036984352774 0.034120734908
          0.10465116279 0.10819672131 0.063694267516 0 0 0.070981210856
          0.15544871795 0.16500711238 0.12290502793 0.11282051282 0.16500711238 0.15544871795
          0.070981210856 0 0 0.082217973231 0.19378698225 0.25459317585
          0.33974358974 0.38981042654 0.25459317585 0.19378698225 0.082217973231 0
          0 0.093418259023 0.24918032787 0.35610465116 0.41963015647 0.46456692913
          0.35610465116 0.24918032787 0.093418259023 0 0 0.10765550239
          0.30868761553 0.39508196721 0.44391025641 0.48668639053 0.39508196721 0.30868761553
          0.10765550239 0 0 0.1625 0.35645933014 0.43099787686
          0.44467640919 0.4913957935 0.43099787686 0.35645933014 0.1625 0
          0 0.16165413534 0.35446685879 0.42966751918 0.44472361809 0.49078341014
          0.42966751918 0.35446685879 0.16165413534 0 0 0
          0 0 0 0 0 0
          0 0 0 0.02786377709 0 0
          0 0 0 0 0.02786377709 0
          0 0.054117647059 0.070397111913 0.040064102564 0.014173228346 0.013005780347
          0.040064102564 0.070397111913 0.054117647059 0 0 0.066805845511
          0.11057692308 0.106685633 0.037709497207 0.034615384615 0.106685633 0.11057692308
          0.066805845511 0 0 0.074226804124 0.16062992126 0.16759776536
          0.12362637363 0.11292346299 0.16759776536 0.16062992126 0.074226804124 0
          0 0.084427767355 0.19942196532 0.25769230769 0.33877038896 0.39145496536
          0.25769230769 0.19942196532 0.084427767355 0 0 0.093945720251
          0.25320512821 0.35988620199 0.41899441341 0.46666666667 0.35988620199 0.25320512821
          0.093945720251 0 0 0.10588235294 0.31407942238 0.39903846154
          0.44409448819 0.48988439306 0.39903846154 0.31407942238 0.10588235294 0
          0 0.16718266254 0.36705882353 0.43841336117 0.44536082474 0.49530956848
          0.43841336117 0.36705882353 0.16718266254 0 0 0.16728624535
          0.36543909348 0.43718592965 0.44554455446 0.49435665914 0.43718592965 0.36543909348
          0.16728624535 0 0 0 0 0
          0 0 0 0 0 0
          0 0.025280898876 0 0 0 0
          0 0 0.025280898876 0 0 0.049568965517
          0.066666666667 0.038461538462 0.013005780347 0.012016021362 0.038461538462 0.066666666667
          0.049568965517 0 0 0.06309751434 0.1050295858 0.10367454068
          0.037179487179 0.034360189573 0.10367454068 0.1050295858 0.06309751434 0
          0 0.071294559099 0.15462427746 0.1641025641 0.12296110414 0.11316397229
          0.1641025641 0.15462427746 0.071294559099 0 0 0.082616179002
          0.19359145527 0.25473933649 0.34064665127 0.38930481283 0.25473933649 0.19359145527
          0.082616179002 0 0 0.093690248566 0.24852071006 0.35564304462
          0.41923076923 0.46327014218 0.35564304462 0.24852071006 0.093690248566 0
          0 0.10775862069 0.30833333333 0.39349112426 0.4436416185 0.48598130841
          0.39349112426 0.30833333333 0.10775862069 0 0 0.16292134831
          0.35560344828 0.43021032505 0.44465290807 0.49053356282 0.43021032505 0.35560344828
          0.16292134831 0 0 0.16216216216 0.35324675325 0.42857142857
          0.44469525959 0.48962655602 0.42857142857 0.35324675325 0.16216216216 0
          0 0 0 0 0 0
          0 0 0 0 0 0.025
          0 0 0 0 0 0
          0.025 0 0 0.05023923445 0.068391866913 0.039344262295
          0.012820512821 0.011834319527 0.039344262295 0.068391866913 0.05023923445 0
          0 0.063694267516 0.10819672131 0.10465116279 0.036984352774 0.034120734908
          0.10465116279 0.10819672131 0.063694267516 0 0 0.070981210856
          0.15544871795 0.16500711238 0.12290502793 0.11282051282 0.16500711238 0.15544871795
          0.070981210856 0 0 0.082217973231 0.19378698225 0.25459317585
          0.33974358974 0.38981042654 0.25459317585 0.19378698225 0.082217973231 0
          0 0.093418259023 0.24918032787 0.35610465116 0.41963015647 0.46456692913
          0.35610465116 0.24918032787 0.093418259023 0 0 0.10765550239
          0.30868761553 0.39508196721 0.44391025641 0.48668639053 0.39508196721 0.30868761553
          0.10765550239 0 0 0.1625 0.35645933014 0.43099787686
          0.44467640919 0.4913957935 0.43099787686 0.35645933014 0.1625 0
          0 0.16165413534 0.35446685879 0.42966751918 0.44472361809 0.49078341014
          0.42966751918 0.35446685879 0.16165413534 0 0 0
          0 0 0 0 0 0
          0 0 0 0.024647887324 0 0
          0 0 0 0 0.024647887324 0
          0 0.051212938005 0.06875 0.038817005545 0.012635379061 0.011666666667
          0.038817005545 0.06875 0.051212938005 0 0 0.064593301435
          0.10905730129 0.10491803279 0.036858974359 0.034023668639 0.10491803279 0.10905730129
          0.064593301435 0 0 0.070588235294 0.15523465704 0.16506410256
          0.12283464567 0.11271676301 0.16506410256 0.15523465704 0.070588235294 0
          0 0.081896551724 0.19333333333 0.25443786982 0.33959537572 0.38985313752
          0.25443786982 0.19333333333 0.081896551724 0 0 0.093301435407
          0.24768946396 0.35573770492 0.41987179487 0.46449704142 0.35573770492 0.24768946396
          0.093301435407 0 0 0.10781671159 0.30833333333 0.39556377079
          0.4440433213 0.48666666667 0.39556377079 0.30833333333 0.10781671159 0
          0 0.16197183099 0.35579514825 0.43062200957 0.44470588235 0.49137931034
          0.43062200957 0.35579514825 0.16197183099 0 0 0.16101694915
          0.3538961039 0.42939481268 0.4447592068 0.49090909091 0.42939481268 0.3538961039
          0.16101694915 0 0 0 0 0
          0 0 0 0 0 0
          0 0.027906976744 0 0 0 0
          0 0 0.027906976744 0 0 0.056338028169
          0.072776280323 0.040669856459 0.014117647059 0.012931034483 0.040669856459 0.072776280323
          0.056338028169 0 0 0.06875 0.11483253589 0.10828025478
          0.0375782881 0.034416826004 0.10828025478 0.11483253589 0.06875 0
          0 0.074303405573 0.16235294118 0.16910229645 0.12371134021 0.11257035647
          0.16910229645 0.16235294118 0.074303405573 0 0 0.084269662921
          0.20043103448 0.25812619503 0.33771106942 0.39242685026 0.25812619503 0.20043103448
          0.084269662921 0 0 0.09375 0.25358851675 0.36093418259
          0.41962421712 0.46845124283 0.36093418259 0.25358851675 0.09375 0
          0 0.10563380282 0.3153638814 0.4019138756 0.44470588235 0.49137931034
          0.4019138756 0.3153638814 0.10563380282 0 0 0.16744186047
          0.36971830986 0.440625 0.44582043344 0.49719101124 0.440625 0.36971830986
          0.16744186047 0 0 0.16759776536 0.3686440678 0.43984962406
          0.44609665428 0.49662162162 0.43984962406 0.3686440678 0.16759776536 0
          0 0 0 0 0 0
          0 0 0 0 0 0.027932960894
          0 0 0 0 0 0
          0.027932960894 0 0 0.055084745763 0.071428571429 0.040345821326
          0.014164305949 0.012987012987 0.040345821326 0.071428571429 0.055084745763 0
          0 0.067669172932 0.11239193084 0.1074168798 0.037688442211 0.034562211982
          0.1074168798 0.11239193084 0.067669172932 0 0 0.074349442379
          0.16147308782 0.16834170854 0.12376237624 0.11286681716 0.16834170854 0.16147308782
          0.074349442379 0 0 0.084459459459 0.2 0.25806451613
          0.33860045147 0.39211618257 0.25806451613 0.2 0.084459459459 0
          0 0.093984962406 0.25360230548 0.36061381074 0.41959798995 0.46774193548
          0.36061381074 0.25360230548 0.093984962406 0 0 0.10593220339
          0.31493506494 0.40057636888 0.4447592068 0.49090909091 0.40057636888 0.31493506494
          0.10593220339 0 0 0.16759776536 0.3686440678 0.43984962406
          0.44609665428 0.49662162162 0.43984962406 0.3686440678 0.16759776536 0
          0 0.1677852349 0.36734693878 0.43891402715 0.44642857143 0.49593495935
          0.43891402715 0.36734693878 0.1677852349 0
        </DataArray>
        <DataArray type="Float64" Name="Displacement" NumberOfComponents="3" format="ascii" RangeMin="1.7643998325" RangeMax="1.8011993723">
          -0.035244057439 -1.7734152649 -0.10199444919 -0.03580861324 -1.7783513638 -0.10194528233
          -0.034298517678 -1.7787256799 -0.10382031817 -0.035747454322 -1.7825678532 -0.10060413196
          -0.034964017562 -1.7819807233 -0.10257343227 -0.03521458624 -1.7837416854 -0.10166004524
          -0.034630322723 -1.7862621434 -0.10045515621 -0.035809038127 -1.7846936124 -0.10341009413
          -0.035179106052 -1.7871539292 -0.10115846065 -0.034738440266 -1.7853506586 -0.10124889679
          -0.031476796232 -1.7772979781 -0.10550338593 -0.031520681582 -1.7826785112 -0.10207405622
          -0.034281585554 -1.781814773 -0.10132385022 -0.033705125713 -1.7827028903 -0.10200729338
          -0.032972278868 -1.7843333301 -0.10230096667 -0.034005647451 -1.7856102777 -0.10197217455
          -0.033914543381 -1.7868008721 -0.10195645501 -0.033257770552 -1.7887440455 -0.10139039726
          -0.036393369914 -1.7916981746 -0.10159959916 -0.036857268468 -1.78896168 -0.10472430992
          -0.033287645962 -1.7787155367 -0.10241401691 -0.032409964489 -1.7805123169 -0.1022822959
          -0.032116495015 -1.7824302056 -0.10342464823 -0.032604727101 -1.7833444456 -0.10304217226
          -0.032478722349 -1.7848998074 -0.10280403759 -0.032767777021 -1.7869555594 -0.10189629973
          -0.032326502712 -1.7872855259 -0.10292837762 -0.032689753907 -1.7887282827 -0.10320658856
          -0.032502790402 -1.7897002133 -0.10174061532 -0.031502072382 -1.7902426457 -0.10200712728
          -0.03142660745 -1.7802294246 -0.10473031721 -0.030926976219 -1.7808186031 -0.10627476996
          -0.032031712382 -1.7823199603 -0.10459239365 -0.03197937221 -1.7839607096 -0.10405056426
          -0.030909236204 -1.7845634844 -0.10437367022 -0.031178969415 -1.7855533505 -0.10523980135
          -0.031276971606 -1.7865769607 -0.10517652508 -0.030482953682 -1.7888088911 -0.10440459585
          -0.031635484085 -1.7897833647 -0.10591376678 -0.031181519932 -1.7918806797 -0.10435417163
          -0.030056230688 -1.7794421958 -0.10616286119 -0.031116879254 -1.780361446 -0.1059783986
          -0.030252745586 -1.7827307445 -0.10616150293 -0.029429407431 -1.7825511283 -0.10598883817
          -0.03043621476 -1.7849048377 -0.10642054458 -0.029839620015 -1.7857096362 -0.10655233215
          -0.029996457728 -1.7867115832 -0.10582436873 -0.029531951877 -1.7887957438 -0.10595013615
          -0.029127558658 -1.7892695112 -0.10563847033 -0.029612033626 -1.7913563341 -0.1058107739
          -0.029585036476 -1.7800070406 -0.10761138133 -0.029381562072 -1.780138741 -0.10767570318
          -0.029645211294 -1.7825655471 -0.1071690088 -0.029180606969 -1.7834273066 -0.10776227513
          -0.030110473247 -1.784596092 -0.10844902161 -0.026578665469 -1.7862308282 -0.10832195004
          -0.027829393976 -1.7873530384 -0.10720767843 -0.027608527331 -1.7887086161 -0.10647350221
          -0.028376507013 -1.789491501 -0.10737562445 -0.027597362245 -1.7916992272 -0.10689930857
          -0.027381486463 -1.7790623566 -0.10934838442 -0.027328715371 -1.7810619486 -0.10940515222
          -0.028456593892 -1.7817096494 -0.10811665486 -0.028879599609 -1.7844381611 -0.10934762595
          -0.02783544861 -1.783755984 -0.10863433932 -0.026670938207 -1.7850765545 -0.10854353595
          -0.025919111205 -1.7883438211 -0.10926332402 -0.026078554255 -1.7881738391 -0.10802539458
          -0.027473613822 -1.7902185358 -0.10914704765 -0.027273170901 -1.7908448924 -0.1086676638
          -0.026716719785 -1.7797795319 -0.11203568924 -0.027243721159 -1.7807014188 -0.11022367474
          -0.02657238008 -1.7824176646 -0.11088058276 -0.027161421128 -1.7828362192 -0.1102353748
          -0.028968020281 -1.7847189958 -0.11192731585 -0.022677617676 -1.7859589769 -0.11180105255
          -0.023704824949 -1.7869887263 -0.11035502017 -0.024925233574 -1.7890307144 -0.11042624585
          -0.024937243438 -1.7898572545 -0.10977454245 -0.02534480262 -1.7912377441 -0.11117322159
          -0.026472895552 -1.7818560367 -0.1104061456 -0.021096218164 -1.7805557935 -0.113604835
          -0.023363667547 -1.7810764705 -0.11105259138 -0.027331970592 -1.782723772 -0.11087770543
          -0.024892903723 -1.7842896816 -0.11360164624 -0.023647856126 -1.7863384743 -0.11277883389
          -0.022260268623 -1.7867106855 -0.11126924075 -0.025765777049 -1.7879542758 -0.11107444232
          -0.028158770434 -1.7897013943 -0.11348023355 -0.022891022506 -1.7938486679 -0.11000684114
          -0.029284209495 -1.7851803645 -0.11712603548 -0.020455328308 -1.7817231866 -0.11520229444
          -0.023211963405 -1.7870379213 -0.1183527786 -0.024857900368 -1.7881385492 -0.11728587018
          -0.020209530915 -1.782661927 -0.1083842528 -0.026769216719 -1.7840679113 -0.1081412523
          -0.02195756738 -1.792206507 -0.11675971135 -0.023644540145 -1.7937421777 -0.11807341932
          -0.026292225201 -1.7911326769 -0.11500283364 -0.017525324287 -1.7973192614 -0.11685681213
          -0.034223484355 -1.7784078371 -0.10168158512 -0.03474888406 -1.7797702834 -0.10024980013
          -0.035170630337 -1.7802318118 -0.099891982094 -0.035375526953 -1.7814972013 -0.10050241015
          -0.034807825136 -1.7826533237 -0.10074472224 -0.035360057135 -1.7837351079 -0.10100381971
          -0.035256958641 -1.7856685486 -0.10048246401 -0.034931417128 -1.7873089667 -0.099673596662
          -0.035630157597 -1.7891864051 -0.099659353037 -0.036559760879 -1.7900884502 -0.10107934472
          -0.03470819151 -1.775618679 -0.10235985039 -0.034057752446 -1.7803070086 -0.10165007734
          -0.033588192966 -1.7803779091 -0.10223618096 -0.0338280328 -1.7814163881 -0.10213812282
          -0.033673062237 -1.7828435346 -0.10155582037 -0.033860688715 -1.7835119937 -0.10239368314
          -0.033797068804 -1.7856163739 -0.10218423564 -0.034178013084 -1.7870506262 -0.1019730607
          -0.033897056199 -1.7893889175 -0.10118944849 -0.03284215223 -1.7875977571 -0.10182368008
          -0.032148704448 -1.7776000977 -0.10542759566 -0.032752528476 -1.7793319889 -0.10347942227
          -0.032606333604 -1.7807632296 -0.10285043056 -0.032597251281 -1.78139016 -0.10346630296
          -0.032542141485 -1.7829039819 -0.1033561032 -0.032563509564 -1.7839793768 -0.10345511916
          -0.032470361766 -1.7855475762 -0.1030025417 -0.032321937556 -1.7877718365 -0.10202817393
          -0.032523880029 -1.788603095 -0.10286211755 -0.033439909738 -1.7891389974 -0.10460695539
          -0.031238221162 -1.7775772773 -0.10508166829 -0.030465529339 -1.7795932282 -0.1051274507
          -0.031589150476 -1.7804435765 -0.10431363701 -0.031247263143 -1.7816021046 -0.10480295283
          -0.031259269734 -1.7828552222 -0.10472304 -0.031288693533 -1.7841809318 -0.10469018259
          -0.031342975561 -1.7855952963 -0.10488009899 -0.030915427403 -1.7869938943 -0.10428323947
          -0.032051655772 -1.7888222078 -0.10463584417 -0.031123357114 -1.7890574238 -0.10457331011
          -0.030467718258 -1.7783931555 -0.10592193366 -0.030002944494 -1.7792400173 -0.10663400256
          -0.030321739252 -1.7805736013 -0.10588686736 -0.030146455427 -1.7819350494 -0.1061363401
          -0.030090129551 -1.7830117656 -0.10634738888 -0.029811284048 -1.7843124939 -0.10626619217
          -0.02983085833 -1.7859233189 -0.10609939277 -0.029556930319 -1.7870288311 -0.10542040894
          -0.030109319721 -1.7884458869 -0.10616162036 -0.029653932126 -1.7907127239 -0.10537884071
          -0.028976151194 -1.7787748187 -0.10760562193 -0.028796695542 -1.779117365 -0.10743810546
          -0.028720368724 -1.7805696597 -0.10732272844 -0.02829728969 -1.781542351 -0.10698633698
          -0.029201360458 -1.7830353571 -0.10783829431 -0.028040287523 -1.7843115228 -0.10775478244
          -0.028606063563 -1.7855730485 -0.10669202611 -0.028485785427 -1.7870417645 -0.10693840284
          -0.028417647518 -1.7884114186 -0.10720163143 -0.028354005743 -1.7903571092 -0.10727471454
          -0.027630998828 -1.7775352853 -0.1093036911 -0.028093115571 -1.779604444 -0.10885432138
          -0.028007222846 -1.7805041853 -0.10861056727 -0.029242459748 -1.7819349446 -0.10950268297
          -0.028532060315 -1.7827174907 -0.1096477838 -0.026037907101 -1.7839730669 -0.10969812579
          -0.025449008116 -1.7859786999 -0.10936516561 -0.026614699236 -1.7870684412 -0.10833820043
          -0.026620754256 -1.7885984143 -0.10835042089 -0.027175875637 -1.7894746794 -0.10877265462
          -0.028316583098 -1.7791455045 -0.10849208097 -0.027245370153 -1.7793697031 -0.11017844571
          -0.026480339232 -1.7803711097 -0.10986299846 -0.027179899084 -1.7822820555 -0.1111155179
          -0.026545894094 -1.7838632115 -0.11107052589 -0.025208591026 -1.7851997154 -0.11120608836
          -0.02483346807 -1.7864631076 -0.11088684463 -0.025302452103 -1.7869024371 -0.10938621926
          -0.024758626486 -1.7887283141 -0.10975112523 -0.023518414208 -1.7907966049 -0.10806031744
          -0.023084456725 -1.7737165608 -0.11131661982 -0.02456391913 -1.7797025871 -0.11269979813
          -0.025468424183 -1.7816187014 -0.1124296015 -0.026500132649 -1.7819036906 -0.11234696109
          -0.025967656951 -1.7826664323 -0.11203635672 -0.023437405518 -1.7840595283 -0.11163385603
          -0.022742411724 -1.7858591085 -0.11186276564 -0.023838735943 -1.7880782583 -0.11183315636
          -0.024765695259 -1.7886719213 -0.11183115036 -0.026377727896 -1.7858946504 -0.11080685417
          -0.023319907538 -1.775728209 -0.1164807748 -0.025017564933 -1.7787079031 -0.11327679665
          -0.023647558989 -1.7810808505 -0.11319106398 -0.0278087219 -1.7806068079 -0.11246514434
          -0.023783640119 -1.7823597995 -0.11053879531 -0.023427774412 -1.7831646998 -0.11093681609
          -0.018991914518 -1.7845678928 -0.11295286672 -0.022817827507 -1.7878358567 -0.11341287577
          -0.021579701501 -1.7876235341 -0.11254870394 -0.023790014357 -1.7877021279 -0.11585603229
          -0.034931667116 -1.7764982376 -0.10198409138 -0.035280932051 -1.7768836509 -0.1012023919
          -0.035810045909 -1.7791413771 -0.099213913447 -0.035544607602 -1.7801842901 -0.10043317449
          -0.035357655072 -1.7811395816 -0.10075621948 -0.034943151859 -1.7829847139 -0.099424094331
          -0.035098504227 -1.7839876961 -0.10047326597 -0.034862996378 -1.7855826874 -0.098907459246
          -0.034536390699 -1.7858683624 -0.10092377307 -0.035162561816 -1.7883370922 -0.10111260826
          -0.033988486483 -1.7766374481 -0.10172829558 -0.033714718736 -1.7780704037 -0.10147123287
          -0.033861995217 -1.7785741954 -0.10232897127 -0.034000006293 -1.7804071501 -0.10167621371
          -0.033846048345 -1.7812466641 -0.10202896643 -0.033834210183 -1.7827403716 -0.10190347882
          -0.033938807585 -1.7843811391 -0.10155215876 -0.034064787122 -1.7850921297 -0.10211571916
          -0.034034995425 -1.7872788938 -0.10114717887 -0.034377980985 -1.788894706 -0.10109126967
          -0.032511706726 -1.776212473 -0.10395750178 -0.033250289789 -1.7774628169 -0.10312968919
          -0.032590953708 -1.7791943385 -0.10317578969 -0.032490753292 -1.7800991515 -0.10334808695
          -0.032549896729 -1.7812437755 -0.10325591643 -0.032549563777 -1.7824702559 -0.1031127618
          -0.032695989055 -1.7840396131 -0.10307379177 -0.032620242947 -1.7857133211 -0.10282529504
          -0.031907318671 -1.7867130949 -0.1026151048 -0.032905644031 -1.7880554736 -0.10324877865
          -0.030928223977 -1.7773352942 -0.10471181313 -0.031852310131 -1.7777039634 -0.10459739515
          -0.03142730188 -1.7790598206 -0.10459512238 -0.031259851429 -1.7801838525 -0.1048166623
          -0.031428332486 -1.7814363223 -0.104904129 -0.031276010849 -1.782704936 -0.10461347603
          -0.031283697517 -1.7842673541 -0.10458092268 -0.031202921026 -1.7857470738 -0.10432267688
          -0.030994334929 -1.7869610182 -0.10408821572 -0.031696875275 -1.7889877934 -0.1039137535
          -0.029407795537 -1.7767616545 -0.1069309269 -0.029896186154 -1.777815002 -0.1062739931
          -0.030133231624 -1.7790964026 -0.10613233511 -0.029902997009 -1.7802306847 -0.10626615849
          -0.029862248537 -1.7814978354 -0.10611267671 -0.029997309723 -1.7828126742 -0.10612731963
          -0.029942872252 -1.784145208 -0.10601453474 -0.02996518634 -1.7856414669 -0.10584434186
          -0.030056455913 -1.7869767036 -0.10578057206 -0.030599589167 -1.7887019439 -0.10638169216
          -0.029698153948 -1.7771466614 -0.1067958906 -0.02872237048 -1.7778110629 -0.10780507281
          -0.029146756745 -1.7793080779 -0.10739721428 -0.028146090778 -1.7800989204 -0.10745436193
          -0.028515104854 -1.7813430868 -0.10743003686 -0.028383609703 -1.7828169695 -0.10748699334
          -0.029067809351 -1.7841432724 -0.10730567102 -0.028482267651 -1.7858141634 -0.10716679229
          -0.028386476152 -1.7870751888 -0.10718847064 -0.02752640967 -1.7889777374 -0.10597472103
          -0.027858976144 -1.7763349214 -0.1089198616 -0.028108765631 -1.7780945715 -0.10915656901
          -0.027770609298 -1.7791163692 -0.10891536303 -0.027492547416 -1.7802195723 -0.10901845503
          -0.027891105117 -1.7813309121 -0.10901253307 -0.026882488185 -1.7828422002 -0.10907181258
          -0.027038354965 -1.7841177191 -0.10867107724 -0.026991950519 -1.7856882896 -0.10867990589
          -0.026708052979 -1.7873166345 -0.10863994444 -0.02697476 -1.7882188934 -0.10838175605
          -0.025960426029 -1.7768073526 -0.11127125419 -0.027163981913 -1.7781770293 -0.11047897544
          -0.02511588847 -1.7788654519 -0.11076712869 -0.026270157133 -1.7809085354 -0.11116842267
          -0.026538202051 -1.7812456908 -0.1104430391 -0.025560106933 -1.7822519914 -0.11023727294
          -0.025565543488 -1.7848102215 -0.11099218296 -0.02690769851 -1.7849987238 -0.10995827403
          -0.025016623555 -1.7873615866 -0.10996158782 -0.025923618556 -1.7887360702 -0.11091528319
          -0.024088938078 -1.7751905025 -0.11145114307 -0.025995975072 -1.7782126231 -0.11192660247
          -0.024924634528 -1.7787731849 -0.11200020259 -0.025091514468 -1.7803868814 -0.11195686588
          -0.026357802275 -1.7812546453 -0.11223062277 -0.023209102659 -1.7825342999 -0.1120939168
          -0.024361799916 -1.7841902257 -0.11172280024 -0.024620686981 -1.7852580954 -0.11159032109
          -0.023404756596 -1.787236515 -0.11144019537 -0.024611034114 -1.7874079466 -0.1109365701
          -0.024042022128 -1.7760763918 -0.11382088669 -0.021489881834 -1.7753853697 -0.1127527616
          -0.025940052547 -1.7782350486 -0.11202463783 -0.024882346793 -1.7804078933 -0.11397871733
          -0.024014164543 -1.7818025695 -0.11281572357 -0.023142820892 -1.7832185509 -0.1126134925
          -0.021771024726 -1.7842071395 -0.11373255094 -0.021045644184 -1.7849221608 -0.11157060539
          -0.025063341558 -1.7848394612 -0.11196862385 -0.02313022803 -1.7879633119 -0.11303071915
          -0.032844354211 -1.7773270588 -0.10067107932 -0.035698749239 -1.7765468232 -0.0996122606
          -0.03519499187 -1.7778477563 -0.10068583562 -0.035359857407 -1.7783298229 -0.1008524692
          -0.035405367574 -1.7795818189 -0.10061772914 -0.035347305583 -1.7807012634 -0.10091640356
          -0.035113648635 -1.7822989456 -0.10044536975 -0.035391304071 -1.784274441 -0.10028952309
          -0.035475317941 -1.7860958872 -0.099342910903 -0.037691715577 -1.7890977886 -0.10009221747
          -0.034011833385 -1.7747128841 -0.10277303017 -0.03420424425 -1.7759098801 -0.10179729941
          -0.033865420884 -1.7774126563 -0.10204031071 -0.034045136204 -1.7785288443 -0.10190921536
          -0.033952520685 -1.7799913444 -0.10186248226 -0.033978466725 -1.7812112523 -0.10179238253
          -0.034161997277 -1.7829769359 -0.10168341701 -0.034192137273 -1.7841870039 -0.10178571177
          -0.03371545826 -1.7852915375 -0.10127633 -0.034302116678 -1.7868449585 -0.10245366308
          -0.032866935868 -1.7751937768 -0.10288099049 -0.032420242546 -1.7766098863 -0.10321246038
          -0.032435091042 -1.7774384331 -0.1032459845 -0.032610762253 -1.7786857364 -0.10323118343
          -0.03264064335 -1.7798676931 -0.10322043822 -0.032679594677 -1.7812341081 -0.10314426659
          -0.03274240462 -1.7826638746 -0.1030781274 -0.032784562183 -1.7840466563 -0.10286057875
          -0.032784722513 -1.7856500595 -0.10276396467 -0.03261663705 -1.7871069403 -0.10233663212
          -0.031880117777 -1.7745117223 -0.10509175573 -0.031467669553 -1.7763021539 -0.10474603241
          -0.031425927107 -1.7775707646 -0.10468782584 -0.031365018483 -1.7786641915 -0.10465649398
          -0.03129166951 -1.7799722429 -0.10466065827 -0.031296632797 -1.7812566239 -0.10457551495
          -0.031351026275 -1.7827410806 -0.10452491996 -0.031315613963 -1.7841536231 -0.10433023095
          -0.031220142024 -1.7854869555 -0.10423341171 -0.030933062685 -1.7864418503 -0.10448114295
          -0.03009825161 -1.7752306894 -0.10655530095 -0.029929658035 -1.7763166596 -0.10623591484
          -0.029746606945 -1.7774197874 -0.10611620754 -0.030039910105 -1.7788991083 -0.10621598557
          -0.030007935119 -1.7799861924 -0.1060972606 -0.029990926462 -1.7812868375 -0.10608306561
          -0.030023559662 -1.7828470649 -0.10603374023 -0.030091180874 -1.7840174297 -0.10577007067
          -0.030121688846 -1.7856055442 -0.10569306394 -0.030050330097 -1.7870582192 -0.10610517343
          -0.029117219956 -1.7752150938 -0.10760922974 -0.029040518226 -1.7763277151 -0.10763721048
          -0.028684748158 -1.7775324889 -0.1075669492 -0.028960384223 -1.7788272795 -0.10750895495
          -0.028853814435 -1.7801509957 -0.1074891635 -0.028582958382 -1.7814621487 -0.10743065964