<?xml version="1.0"?>
<VTKFile type="UnstructuredGrid" version="0.1" byte_order="LittleEndian" compressor="vtkZLibDataCompressor">
  <UnstructuredGrid>
    <FieldData>
      <DataArray type="Float64" Name="TIME" NumberOfTuples="1" format="ascii" RangeMin="0.55963163001" RangeMax="0.55963163001">
        0.55963163001
      </DataArray>
    </FieldData>
    <Piece NumberOfPoints="1000" NumberOfCells="0">
      <PointData>
        <DataArray type="Float64" Name="Damage" format="ascii" RangeMin="0" RangeMax="0.49719101124">
          0 0 0 0 0 0
          0 0 0 0 0 0.027932960894
          0 0 0 0 0 0
          0.027932960894 0 0 0.055084745763 0.071428571429 0.040345821326
          0.014164305949 0.012987012987 0.040345821326 0.071428571429 0.055084745763 0
          0 0.067669172932 0.11239193084 0.1074168798 0.037688442211 0.034562211982
          0.1074168798 0.11239193084 0.067669172932 0 0 0.074349442379
          0.16147308782 0.16834170854 0.12376237624 0.11286681716 0.16834170854 0.16147308782
          0.074349442379 0 0 0.084459459459 0.2 0.25806451613
          0.33860045147 0.39211618257 0.25806451613 0.2 0.084459459459 0
          0 0.093984962406 0.25360230548 0.36061381074 0.41959798995 0.46774193548
          0.36061381074 0.25360230548 0.093984962406 0 0 0.10593220339
          0.31493506494 0.40057636888 0.4447592068 0.49090909091 0.40057636888 0.31493506494
          0.10593220339 0 0 0.16759776536 0.3686440678 0.43984962406
          0.44609665428 0.49662162162 0.43984962406 0.3686440678 0.16759776536 0
          0 0.1677852349 0.36734693878 0.43891402715 0.44642857143 0.49593495935
          0.43891402715 0.36734693878 0.1677852349 0 0 0
          0 0 0 0 0 0
          0 0 0 0.027906976744 0 0
          0 0 0 0 0.027906976744 0
          0 0.056338028169 0.072776280323 0.040669856459 0.014117647059 0.012931034483
          0.040669856459 0.072776280323 0.056338028169 0 0 0.06875
          0.11483253589 0.10828025478 0.0375782881 0.034416826004 0.10828025478 0.11483253589
          0.06875 0 0 0.074303405573 0.16235294118 0.16910229645
          0.12371134021 0.11257035647 0.16910229645 0.16235294118 0.074303405573 0
          0 0.084269662921 0.20043103448 0.25812619503 0.33771106942 0.39242685026
          0.25812619503 0.20043103448 0.084269662921 0 0 0.09375
          0.25358851675 0.36093418259 0.41962421712 0.46845124283 0.36093418259 0.25358851675
          0.09375 0 0 0.10563380282 0.3153638814 0.4019138756
          0.44470588235 0.49137931034 0.4019138756 0.3153638814 0.10563380282 0
          0 0.16744186047 0.36971830986 0.440625 0.44582043344 0.49719101124
          0.440625 0.36971830986 0.16744186047 0 0 0.16759776536
          0.3686440678 0.43984962406 0.44609665428 0.49662162162 0.43984962406 0.3686440678
          0.16759776536 0 0 0 0 0
          0 0 0 0 0 0
          0 0.024647887324 0 0 0 0
          0 0 0.024647887324 0 0 0.051212938005
          0.06875 0.038817005545 0.012635379061 0.011666666667 0.038817005545 0.06875
          0.051212938005 0 0 0.064593301435 0.10905730129 0.10491803279
          0.036858974359 0.034023668639 0.10491803279 0.10905730129 0.064593301435 0
          0 0.070588235294 0.15523465704 0.16506410256 0.12283464567 0.11271676301
          0.16506410256 0.15523465704 0.070588235294 0 0 0.081896551724
          0.19333333333 0.25443786982 0.33959537572 0.38985313752 0.25443786982 0.19333333333
          0.081896551724 0 0 0.093301435407 0.24768946396 0.35573770492
          0.41987179487 0.46449704142 0.35573770492 0.24768946396 0.093301435407 0
          0 0.10781671159 0.30833333333 0.39556377079 0.4440433213 0.48666666667
          0.39556377079 0.30833333333 0.10781671159 0 0 0.16197183099
          0.35579514825 0.43062200957 0.44470588235 0.49137931034 0.43062200957 0.35579514825
          0.16197183099 0 0 0.16101694915 0.3538961039 0.42939481268
          0.4447592068 0.49090909091 0.42939481268 0.3538961039 0.16101694915 0
          0 0 0 0 0 0
          0 0 0 0 0 0.025
          0 0 0 0 0 0
          0.025 0 0 0.05023923445 0.068391866913 0.039344262295
          0.012820512821 0.011834319527 0.039344262295 0.068391866913 0.05023923445 0
          0 0.063694267516 0.10819672131 0.10465116279 0.036984352774 0.034120734908
          0.10465116279 0.10819672131 0.063694267516 0 0 0.070981210856
          0.15544871795 0.16500711238 0.12290502793 0.11282051282 0.16500711238 0.15544871795
          0.070981210856 0 0 0.082217973231 0.19378698225 0.25459317585
          0.33974358974 0.38981042654 0.25459317585 0.19378698225 0.082217973231 0
          0 0.093418259023 0.24918032787 0.35610465116 0.41963015647 0.46456692913
          0.35610465116 0.24918032787 0.093418259023 0 0 0.10765550239
          0.30868761553 0.39508196721 0.44391025641 0.48668639053 0.39508196721 0.30868761553
          0.10765550239 0 0 0.1625 0.35645933014 0.43099787686
          0.44467640919 0.4913957935 0.43099787686 0.35645933014 0.1625 0
          0 0.16165413534 0.35446685879 0.42966751918 0.44472361809 0.49078341014
          0.42966751918 0.35446685879 0.16165413534 0 0 0
          0 0 0 0 0 0
          0 0 0 0.02786377709 0 0
          0 0 0 0 0.02786377709 0
          0 0.054117647059 0.070397111913 0.040064102564 0.014173228346 0.013005780347
          0.040064102564 0.070397111913 0.054117647059 0 0 0.066805845511
          0.11057692308 0.106685633 0.037709497207 0.034615384615 0.106685633 0.11057692308
          0.066805845511 0 0 0.074226804124 0.16062992126 0.16759776536
          0.12362637363 0.11292346299 0.16759776536 0.16062992126 0.074226804124 0
          0 0.084427767355 0.19942196532 0.25769230769 0.33877038896 0.39145496536
          0.25769230769 0.19942196532 0.084427767355 0 0 0.093945720251
          0.25320512821 0.35988620199 0.41899441341 0.46666666667 0.35988620199 0.25320512821
          0.093945720251 0 0 0.10588235294 0.31407942238 0.39903846154
          0.44409448819 0.48988439306 0.39903846154 0.31407942238 0.10588235294 0
          0 0.16718266254 0.36705882353 0.43841336117 0.44536082474 0.49530956848
          0.43841336117 0.36705882353 0.16718266254 0 0 0.16728624535
          0.36543909348 0.43718592965 0.44554455446 0.49435665914 0.43718592965 0.36543909348
          0.16728624535 0 0 0 0 0
          0 0 0 0 0 0
          0 0.025280898876 0 0 0 0
          0 0 0.025280898876 0 0 0.049568965517
          0.066666666667 0.038461538462 0.013005780347 0.012016021362 0.038461538462 0.066666666667
          0.049568965517 0 0 0.06309751434 0.1050295858 0.10367454068
          0.037179487179 0.034360189573 0.10367454068 0.1050295858 0.06309751434 0
          0 0.071294559099 0.15462427746 0.1641025641 0.12296110414 0.11316397229
          0.1641025641 0.15462427746 0.071294559099 0 0 0.082616179002
          0.19359145527 0.25473933649 0.34064665127 0.38930481283 0.25473933649 0.19359145527
          0.082616179002 0 0 0.093690248566 0.24852071006 0.35564304462
          0.41923076923 0.46327014218 0.35564304462 0.24852071006 0.093690248566 0
          0 0.10775862069 0.30833333333 0.39349112426 0.4436416185 0.48598130841
          0.39349112426 0.30833333333 0.10775862069 0 0 0.16292134831
          0.35560344828 0.43021032505 0.44465290807 0.49053356282 0.43021032505 0.35560344828
          0.16292134831 0 0 0.16216216216 0.35324675325 0.42857142857
          0.44469525959 0.48962655602 0.42857142857 0.35324675325 0.16216216216 0
          0 0 0 0 0 0
          0 0 0 0 0 0.025
          0 0 0 0 0 0
          0.025 0 0 0.05023923445 0.068391866913 0.039344262295
          0.012820512821 0.011834319527 0.039344262295 0.068391866913 0.05023923445 0
          0 0.063694267516 0.10819672131 0.10465116279 0.036984352774 0.034120734908
          0.10465116279 0.10819672131 0.063694267516 0 0 0.070981210856
          0.15544871795 0.16500711238 0.12290502793 0.11282051282 0.16500711238 0.15544871795
          0.070981210856 0 0 0.082217973231 0.19378698225 0.25459317585
          0.33974358974 0.38981042654 0.25459317585 0.19378698225 0.082217973231 0
          0 0.093418259023 0.24918032787 0.35610465116 0.41963015647 0.46456692913
          0.35610465116 0.24918032787 0.093418259023 0 0 0.10765550239
          0.30868761553 0.39508196721 0.44391025641 0.48668639053 0.39508196721 0.30868761553
          0.10765550239 0 0 0.1625 0.35645933014 0.43099787686
          0.44467640919 0.4913957935 0.43099787686 0.35645933014 0.1625 0
          0 0.16165413534 0.35446685879 0.42966751918 0.44472361809 0.49078341014
          0.42966751918 0.35446685879 0.16165413534 0 0 0
          0 0 0 0 0 0
          0 0 0 0.024647887324 0 0
          0 0 0 0 0.024647887324 0
          0 0.051212938005 0.06875 0.038817005545 0.012635379061 0.011666666667
          0.038817005545 0.06875 0.051212938005 0 0 0.064593301435
          0.10905730129 0.10491803279 0.036858974359 0.034023668639 0.10491803279 0.10905730129
          0.064593301435 0 0 0.070588235294 0.15523465704 0.16506410256
          0.12283464567 0.11271676301 0.16506410256 0.15523465704 0.070588235294 0
          0 0.081896551724 0.19333333333 0.25443786982 0.33959537572 0.38985313752
          0.25443786982 0.19333333333 0.081896551724 0 0 0.093301435407
          0.24768946396 0.35573770492 0.41987179487 0.46449704142 0.35573770492 0.24768946396
          0.093301435407 0 0 0.10781671159 0.30833333333 0.39556377079
          0.4440433213 0.48666666667 0.39556377079 0.30833333333 0.10781671159 0
          0 0.16197183099 0.35579514825 0.43062200957 0.44470588235 0.49137931034
          0.43062200957 0.35579514825 0.16197183099 0 0 0.16101694915
          0.3538961039 0.42939481268 0.4447592068 0.49090909091 0.42939481268 0.3538961039
          0.16101694915 0 0 0 0 0
          0 0 0 0 0 0
          0 0.027906976744 0 0 0 0
          0 0 0.027906976744 0 0 0.056338028169
          0.072776280323 0.040669856459 0.014117647059 0.012931034483 0.040669856459 0.072776280323
          0.056338028169 0 0 0.06875 0.11483253589 0.10828025478
          0.0375782881 0.034416826004 0.10828025478 0.11483253589 0.06875 0
          0 0.074303405573 0.16235294118 0.16910229645 0.12371134021 0.11257035647
          0.16910229645 0.16235294118 0.074303405573 0 0 0.084269662921
          0.20043103448 0.25812619503 0.33771106942 0.39242685026 0.25812619503 0.20043103448
          0.084269662921 0 0 0.09375 0.25358851675 0.36093418259
          0.41962421712 0.46845124283 0.36093418259 0.25358851675 0.09375 0
          0 0.10563380282 0.3153638814 0.4019138756 0.44470588235 0.49137931034
          0.4019138756 0.3153638814 0.10563380282 0 0 0.16744186047
          0.36971830986 0.440625 0.44582043344 0.49719101124 0.440625 0.36971830986
          0.16744186047 0 0 0.16759776536 0.3686440678 0.43984962406
          0.44609665428 0.49662162162 0.43984962406 0.3686440678 0.16759776536 0
          0 0 0 0 0 0
          0 0 0 0 0 0.027932960894
          0 0 0 0 0 0
          0.027932960894 0 0 0.055084745763 0.071428571429 0.040345821326
          0.014164305949 0.012987012987 0.040345821326 0.071428571429 0.055084745763 0
          0 0.067669172932 0.11239193084 0.1074168798 0.037688442211 0.034562211982
          0.1074168798 0.11239193084 0.067669172932 0 0 0.074349442379
          0.16147308782 0.16834170854 0.12376237624 0.11286681716 0.16834170854 0.16147308782
          0.074349442379 0 0 0.084459459459 0.2 0.25806451613
          0.33860045147 0.39211618257 0.25806451613 0.2 0.084459459459 0
          0 0.093984962406 0.25360230548 0.36061381074 0.41959798995 0.46774193548
          0.36061381074 0.25360230548 0.093984962406 0 0 0.10593220339
          0.31493506494 0.40057636888 0.4447592068 0.49090909091 0.40057636888 0.31493506494
          0.10593220339 0 0 0.16759776536 0.3686440678 0.43984962406
          0.44609665428 0.49662162162 0.43984962406 0.3686440678 0.16759776536 0
          0 0.1677852349 0.36734693878 0.43891402715 0.44642857143 0.49593495935
          0.43891402715 0.36734693878 0.1677852349 0
        </DataArray>
        <DataArray type="Float64" Name="Displacement" NumberOfComponents="3" format="ascii" RangeMin="1.2676222713" RangeMax="1.3047906068">
          -0.033189196272 -1.2808358041 -0.092478863077 -0.03080829546 -1.2856955395 -0.086698342583
          -0.032545555058 -1.2849935985 -0.09044358303 -0.032903708755 -1.2856642921 -0.089938497351
          -0.03180774602 -1.2860778625 -0.090845031374 -0.032028264361 -1.2884821935 -0.088635780837
          -0.030995957746 -1.2893702796 -0.089757842582 -0.031470896357 -1.2914175901 -0.090192756799
          -0.033014639347 -1.2946478283 -0.085936713804 -0.03062800048 -1.2925312755 -0.091953488508
          -0.030333721962 -1.2837236442 -0.091351094489 -0.029501573756 -1.2829134611 -0.09070937094
          -0.030520164951 -1.2858119089 -0.090099967759 -0.030407761834 -1.2867750138 -0.090007944645
          -0.031148969644 -1.2877410832 -0.090267971685 -0.030732944315 -1.2895171741 -0.090626091189
          -0.030140760116 -1.2909088835 -0.089912720368 -0.030816598527 -1.2921669249 -0.090058311696
          -0.031727901652 -1.2914842125 -0.090342455794 -0.030460797632 -1.2947023152 -0.090393416811
          -0.031034200096 -1.281765581 -0.090326156354 -0.029371998406 -1.2847332487 -0.091680204488
          -0.029464265008 -1.2848469109 -0.091937420259 -0.028972023564 -1.2863371005 -0.092078310958
          -0.029515230364 -1.2885425732 -0.091318590791 -0.029161698412 -1.2901365337 -0.0912234651
          -0.029248271388 -1.2900003197 -0.091985191163 -0.028981793809 -1.2910798886 -0.091722222245
          -0.029263749811 -1.2939692382 -0.091478583154 -0.027874710873 -1.2934930067 -0.090108154888
          -0.030470740406 -1.2833483199 -0.090935447353 -0.028643598599 -1.2830096897 -0.093530840691
          -0.02807489368 -1.2851228214 -0.093460519164 -0.027817269305 -1.2863083187 -0.093644216514
          -0.027928075562 -1.2879065942 -0.093428266758 -0.027911566131 -1.2898672344 -0.092769521331
          -0.027740224912 -1.2908253816 -0.092796281905 -0.028117193488 -1.2914851806 -0.093219864669
          -0.027627684928 -1.2916546729 -0.092918276457 -0.025789496328 -1.2949249443 -0.090261172878
          -0.026195693835 -1.2808437737 -0.095242062438 -0.024233138038 -1.2840337937 -0.095946475368
          -0.02654811191 -1.2844948625 -0.094381670574 -0.026204896717 -1.2860926598 -0.094304058159
          -0.026178027475 -1.2874210133 -0.094291979106 -0.027162609842 -1.2888858437 -0.095050596539
          -0.027899722444 -1.2896473172 -0.093999395564 -0.02696627971 -1.2911522065 -0.094186668561
          -0.029000283915 -1.2930030666 -0.095630149834 -0.027349577769 -1.2925396679 -0.094763932019
          -0.025766462328 -1.2835413479 -0.09600596183 -0.02438019418 -1.2835473001 -0.096763935351
          -0.02422882376 -1.2846972056 -0.095903608328 -0.024745803046 -1.2865097177 -0.096080611119
          -0.024923984428 -1.2874364349 -0.095619925657 -0.026415299756 -1.289134279 -0.095474444093
          -0.026272574803 -1.290340886 -0.096125693135 -0.026884675561 -1.2910836549 -0.09562779169
          -0.026698455198 -1.2924801939 -0.095613118564 -0.025191811443 -1.2951767511 -0.095463149182
          -0.026298895623 -1.2824724711 -0.09473502616 -0.021953007988 -1.2825822841 -0.098086362042
          -0.022917008756 -1.285120767 -0.097850203106 -0.020873284841 -1.2855441153 -0.097397967991
          -0.022716936546 -1.2899183321 -0.097459352767 -0.02613287737 -1.2911342914 -0.097201200651
          -0.027503604167 -1.2894250897 -0.096744872728 -0.025584753094 -1.2914807385 -0.097580908726
          -0.026403030624 -1.2914033762 -0.097513094272 -0.022148885805 -1.2940390211 -0.094305559386
          -0.019834558895 -1.2814478068 -0.10057482196 -0.023586821706 -1.2832413457 -0.097918241035
          -0.021207535843 -1.2844646953 -0.0986733474 -0.02059567514 -1.2865202451 -0.097720657039
          -0.022414702657 -1.2889023561 -0.099038003395 -0.02378243786 -1.2902188839 -0.099106176373
          -0.026221642002 -1.2901851288 -0.097400968919 -0.025021528867 -1.2908591521 -0.09853248559
          -0.022043309219 -1.2922459619 -0.097590229177 -0.026020414597 -1.2930271816 -0.099940829441
          -0.018962309948 -1.2795658831 -0.1016366539 -0.026827184105 -1.2832297546 -0.097661227819
          -0.020772079047 -1.2843886481 -0.10000285228 -0.019436483572 -1.2864488458 -0.099731420387
          -0.021094019542 -1.2883215697 -0.098438154669 -0.022884957547 -1.2892643871 -0.099269701967
          -0.023769907531 -1.2901405969 -0.099211448104 -0.022447458158 -1.2905311852 -0.099209527048
          -0.016358053537 -1.2925543436 -0.096824589965 -0.024877594087 -1.2908349397 -0.10126042895
          -0.016277756889 -1.2886317431 -0.10686504395 -0.018282756956 -1.276491979 -0.094747644025
          -0.018500132426 -1.2859526033 -0.10101516328 -0.019296124667 -1.284022 -0.098741158774
          -0.022250499978 -1.2841818726 -0.10178518481 -0.018328930491 -1.2855360702 -0.10151309371
          -0.021497935302 -1.2876873415 -0.098287563799 -0.022374629453 -1.2922944727 -0.1006326618
          -0.022231133621 -1.2851885876 -0.094166429991 -0.024947104165 -1.3001709315 -0.10682564527
          -0.033543233717 -1.279627415 -0.088339339954 -0.030903344762 -1.2825324767 -0.090168413344
          -0.031165044955 -1.2850913953 -0.089431022757 -0.032059077013 -1.2849304676 -0.089122569234
          -0.031949249787 -1.2867662885 -0.088699749687 -0.031872761303 -1.2882701025 -0.088378714015
          -0.031689998622 -1.2891919384 -0.088961760244 -0.03279861956 -1.2910442923 -0.089477659975
          -0.033146116487 -1.2913701758 -0.089854305621 -0.029757939517 -1.2910032364 -0.08802798325
          -0.031561096629 -1.2785340447 -0.090710661436 -0.029968514941 -1.2823626291 -0.090305543363
          -0.030111517396 -1.2843147969 -0.090301884276 -0.030407436044 -1.2853226099 -0.090314299205
          -0.030532487976 -1.2867973512 -0.090255681434 -0.030561477566 -1.2873955079 -0.090717246902
          -0.031163768027 -1.2891053342 -0.089993500142 -0.031249694712 -1.2909376097 -0.090061195712
          -0.031427697592 -1.2912749759 -0.08961942725 -0.029578635227 -1.2898721213 -0.090165654245
          -0.029538782141 -1.2810922613 -0.090819449878 -0.029116785494 -1.2818603771 -0.09239169942
          -0.029333866519 -1.2835825611 -0.092291749395 -0.029449080053 -1.2849987115 -0.092039444818
          -0.02944952476 -1.2866939448 -0.091601506553 -0.029407423494 -1.2882480735 -0.091278980061
          -0.029355166226 -1.288692337 -0.091997143534 -0.029773002807 -1.2897221039 -0.092658919395
          -0.029624974925 -1.2908033673 -0.092004001557 -0.029298883456 -1.2925465241 -0.090184074845
          -0.026954726577 -1.2804047887 -0.094143660477 -0.02819623299 -1.2821457678 -0.093252948508
          -0.028195709994 -1.283826348 -0.093176321037 -0.028319156642 -1.2853701007 -0.092793582635
          -0.02817557111 -1.2867268175 -0.093119435177 -0.028036159778 -1.2880689957 -0.09306786779
          -0.027943143237 -1.2893073921 -0.092415946166 -0.02785008964 -1.290303679 -0.092641603558
          -0.028012446429 -1.2912245377 -0.092866345948 -0.029226855193 -1.2918584931 -0.093689410579
          -0.025591262716 -1.2797755875 -0.09570673865 -0.026170770744 -1.2821107493 -0.094792505945
          -0.026868280975 -1.2838957219 -0.094323057098 -0.026886060816 -1.2853773026 -0.094395233831
          -0.026920789389 -1.2869459761 -0.094603184234 -0.02674176767 -1.2883570579 -0.094627207066
          -0.026941184478 -1.2891844939 -0.094491621225 -0.026835700728 -1.2902517148 -0.093985588994
          -0.027680133683 -1.2910303494 -0.094312727917 -0.028052475996 -1.2906932092 -0.095144377436
          -0.024589405389 -1.2798654564 -0.095521825483 -0.024543630962 -1.2820028894 -0.096466693078
          -0.024470980427 -1.2835914532 -0.096097210964 -0.025033621311 -1.2854345909 -0.096734703372
          -0.024605662678 -1.2867271505 -0.095342122875 -0.026681948693 -1.2880110876 -0.095384573228
          -0.02612237936 -1.2890914571 -0.096185774961 -0.02654227006 -1.289979008 -0.095734044529
          -0.026606099041 -1.2911636323 -0.096107036337 -0.026296673357 -1.2915062481 -0.095028822521
          -0.023328238449 -1.2809682401 -0.098065134618 -0.023138116989 -1.2821763898 -0.097583401663
          -0.024089516951 -1.283793243 -0.097316443378 -0.024066177887 -1.2851630763 -0.09747861629
          -0.023045456877 -1.2867859838 -0.096701993557 -0.025547837618 -1.2881247433 -0.09652939779
          -0.024679893464 -1.2890121966 -0.097487257965 -0.024477137707 -1.2903083843 -0.097304981058
          -0.025390690374 -1.2914270802 -0.097339740469 -0.025222929564 -1.2923642045 -0.09744716316
          -0.021991083028 -1.2811028568 -0.098582181742 -0.021782924015 -1.2819048521 -0.098294091459
          -0.022636057295 -1.2837225154 -0.098567408812 -0.022712854597 -1.2852986177 -0.098946281429
          -0.022598115313 -1.2869234659 -0.098729095386 -0.023626700719 -1.2882116707 -0.098625523645
          -0.023379008873 -1.2889836117 -0.098926470056 -0.023346772631 -1.2901445054 -0.098177943965
          -0.024357312484 -1.2906476787 -0.097925902921 -0.023887070497 -1.292624942 -0.097854300208
          -0.023621142071 -1.2832746905 -0.098544225052 -0.021104301798 -1.2818769649 -0.099396116448
          -0.021189163498 -1.2830995629 -0.099316548517 -0.020834085079 -1.2846065051 -0.09911796251
          -0.021522441741 -1.2854544749 -0.09998609188 -0.022018340447 -1.2868089133 -0.10005005992
          -0.022655346087 -1.2884377451 -0.099138964581 -0.022257860776 -1.2895856437 -0.099140749551
          -0.022546573222 -1.2909833235 -0.099206002656 -0.019760761078 -1.2947992567 -0.097702590041
          -0.017944633973 -1.282100687 -0.10305405802 -0.018438804315 -1.2829125271 -0.10349168079
          -0.017183171735 -1.2840338777 -0.10159522067 -0.019831813188 -1.2846615778 -0.10137250881
          -0.019551635589 -1.2875297701 -0.10411523793 -0.021506161571 -1.2888973579 -0.10396547876
          -0.021332492137 -1.2887529335 -0.10105825206 -0.023854064068 -1.290080312 -0.10077154592
          -0.022605506427 -1.2920527896 -0.10273669148 -0.022772454886 -1.2935550634 -0.1024672245
          -0.033400381478 -1.2784362853 -0.089259645107 -0.032799356526 -1.2810980948 -0.089217784221
          -0.033234591499 -1.2823802629 -0.087983569451 -0.03172244065 -1.2837271621 -0.089441265102
          -0.031919384223 -1.2842778433 -0.089910966108 -0.032193708117 -1.2867578955 -0.08914406675
          -0.032077279029 -1.28735779 -0.089277881433 -0.030840195164 -1.2888856383 -0.08778650534
          -0.031492416676 -1.2901933454 -0.088673251767 -0.030108055166 -1.2896079683 -0.089073637358
          -0.030494961314 -1.2791996088 -0.09122918546 -0.031101786457 -1.2810885824 -0.090397132154
          -0.030388768883 -1.2833066021 -0.09005333701 -0.030565783261 -1.2839674096 -0.090442660013
          -0.03074052503 -1.2850083699 -0.090345671483 -0.030655275599 -1.2865540171 -0.090052905048
          -0.030770318497 -1.2878810172 -0.090064098005 -0.03108694865 -1.2899361126 -0.08956675035
          -0.030330916691 -1.290125907 -0.089775122388 -0.030423830361 -1.2903703449 -0.090635249616
          -0.029453092108 -1.2791828477 -0.092157934035 -0.029300453607 -1.2809746268 -0.091991647042
          -0.029515677946 -1.2826479225 -0.091817918078 -0.029513265033 -1.2840242775 -0.091636584272
          -0.029444600128 -1.2852448641 -0.091560580808 -0.029556889466 -1.2865623336 -0.091483176732
          -0.029395635031 -1.2878746006 -0.0913734146 -0.029396989034 -1.2890648127 -0.091445705888
          -0.029753461098 -1.2900813497 -0.091610827023 -0.029208615191 -1.2905729305 -0.091972601189
          -0.028058543829 -1.2793937009 -0.093437092043 -0.027968280754 -1.2810574012 -0.093260975335
          -0.028291033273 -1.2826390169 -0.09318179998 -0.028289629145 -1.2840561604 -0.093156895094
          -0.028208696847 -1.2854007082 -0.093016066063 -0.028164219821 -1.2865149991 -0.092921980594
          -0.028033948849 -1.2878815572 -0.092869038901 -0.028059911181 -1.2890188561 -0.092839959177
          -0.02820002586 -1.2900078772 -0.092844620887 -0.02827260129 -1.2911882408 -0.092843236992
          -0.026039347057 -1.2794947405 -0.095331406751 -0.026271336492 -1.2809104744 -0.094825723292
          -0.027198941865 -1.2826665704 -0.094392525511 -0.026926274512 -1.2839566751 -0.094570789999
          -0.026844568269 -1.2853189282 -0.094649160246 -0.026895759487 -1.2867176735 -0.094595508619
          -0.026942552404 -1.2876578609 -0.094445072117 -0.02669955869 -1.2889619124 -0.094165669036
          -0.027622971074 -1.2898233633 -0.094539244278 -0.027677157623 -1.2910250661 -0.094871265906
          -0.025779586358 -1.2785380931 -0.094924250154 -0.02545236169 -1.2810881176 -0.096013077055
          -0.025001783863 -1.282435794 -0.096135939802 -0.025697562569 -1.2840741179 -0.096185963968
          -0.025605501512 -1.2854690178 -0.096228677021 -0.025903506105 -1.2867738206 -0.09614079655
          -0.025569574311 -1.2878900663 -0.095935055725 -0.026323489749 -1.2887674752 -0.095850106608
          -0.025959516449 -1.2899299982 -0.095650898748 -0.025323545455 -1.2902346847 -0.094275350626
          -0.023475673213 -1.2800550356 -0.098008663772 -0.022710179672 -1.2807275617 -0.097702279249
          -0.023671776454 -1.2823321376 -0.09735576244 -0.024033554077 -1.2839354331 -0.097441940953
          -0.02362272466 -1.2853541274 -0.097259510067 -0.025201674697 -1.2867107793 -0.097228683881
          -0.024571330488 -1.2876992494 -0.09720601793 -0.025095444148 -1.2886766565 -0.097195439922
          -0.025791331591 -1.2897464672 -0.097398622103 -0.025235693189 -1.2917569838 -0.097542595848
          -0.022175779576 -1.2794002203 -0.098258610151 -0.022477805076 -1.2810042044 -0.098539769442
          -0.021641118325 -1.2825813657 -0.099232544501 -0.021999447925 -1.2833025741 -0.09815362222
          -0.021602150141 -1.2857530526 -0.098602012617 -0.024671654812 -1.2868233577 -0.09841128085
          -0.02390428079 -1.2870189553 -0.098059243737 -0.024629927701 -1.2885734821 -0.098571075574
          -0.023877458453 -1.2899779626 -0.098348397678 -0.024078056913 -1.2909958944 -0.097683980412
          -0.020107826099 -1.2799781398 -0.10105611847 -0.020741853563 -1.2805393288 -0.099435176429
          -0.02101479158 -1.2826361303 -0.099864686207 -0.020899771369 -1.2831860084 -0.099634525265
          -0.019802933842 -1.2861748599 -0.099814750812 -0.023800791259 -1.2873880532 -0.099948955246
          -0.022723896855 -1.2868433792 -0.099665980865 -0.022495910221 -1.2888155622 -0.099861440897
          -0.022813457911 -1.2893190396 -0.099243310598 -0.023591710008 -1.2908567264 -0.10071191054
          -0.017930946592 -1.2779130485 -0.10204859202 -0.018937959064 -1.2807155193 -0.1021069228
          -0.021165041503 -1.28288258 -0.10203599816 -0.020569386085 -1.284609167 -0.10220010793
          -0.018055813865 -1.2865297942 -0.10243246499 -0.022888730836 -1.2877086491 -0.10234626119
          -0.020437783282 -1.2884985662 -0.10207015819 -0.01976464158 -1.2895061712 -0.10182745043
          -0.022093586588 -1.2897471698 -0.10182991159 -0.023349056633 -1.2892350857 -0.10147154535
          -0.031681017659 -1.2781012844 -0.089128878047 -0.033275829144 -1.2796204626 -0.089245662564
          -0.03295190553 -1.280147834 -0.088714115678 -0.032666736659 -1.2819195846 -0.089073485939
          -0.032321745229 -1.2835705992 -0.088853046047 -0.031792655309 -1.2850164069 -0.088869027856
          -0.031314846724 -1.2857387357 -0.088821906503 -0.030921487832 -1.2867378445 -0.088292039582
          -0.030553689508 -1.2882162051 -0.088855694665 -0.032315892305 -1.2898515624 -0.088696709591
          -0.03145566206 -1.277501579 -0.091469043263 -0.03085218115 -1.2796572972 -0.090458322174
          -0.030638833176 -1.2815588737 -0.090140849467 -0.030911574341 -1.2824330032 -0.090275226123
          -0.0308372792 -1.2839745477 -0.090175761354 -0.030767238211 -1.2853069111 -0.090052989426
          -0.030787266654 -1.2864847376 -0.090005504118 -0.030653955641 -1.2876160723 -0.089957021854
          -0.030719480277 -1.288565711 -0.089946517591 -0.02981406362 -1.2886761332 -0.091132154943
          -0.029785068014 -1.2779651585 -0.091692142923 -0.029318934804 -1.2797388635 -0.091931036138
          -0.029543859591 -1.2811614933 -0.091866757065 -0.029503811155 -1.2826082748 -0.09173713217
          -0.029486216723 -1.283934489 -0.091617677523 -0.029388941211 -1.2852906368 -0.091604407011
          -0.029416804855 -1.2864363892 -0.091592263736 -0.029377031247 -1.2875244211 -0.091528835688
          -0.029571944761 -1.288634425 -0.091494146917 -0.029151608585 -1.2893595944 -0.091217108249
          -0.027921500301 -1.2778715064 -0.093994028446 -0.028181984874 -1.2796713831 -0.09321773202
          -0.028235926745 -1.2811807038 -0.093233468501 -0.028220717566 -1.2826407308 -0.093208729907
          -0.028262782466 -1.2839509442 -0.093169314363 -0.028209733456 -1.2853411733 -0.093065699771
          -0.028188418102 -1.2864454483 -0.092967917171 -0.028167105145 -1.2874734792 -0.092928801021
          -0.028254710532 -1.2885557804 -0.092876152905 -0.028234374494 -1.2893626385 -0.093263482834
          -0.026296333807 -1.2784375787 -0.09512594499 -0.027083458376 -1.2796661803 -0.094509649099
          -0.026749158066 -1.2811021821 -0.094694684344 -0.026991798432 -1.2825580176 -0.094577088548
          -0.026920927966 -1.2839836151 -0.094525905953 -0.026953195701 -1.2852844237 -0.094338603283
          -0.027031323302 -1.2864026435 -0.094496496387 -0.027060522527 -1.2874540174 -0.094343809113
          -0.026664122169 -1.2885819356 -0.094061749684 -0.027553376882 -1.2900791287 -0.094426897943