<?xml version="1.0"?>
<VTKFile type="UnstructuredGrid" version="0.1" byte_order="LittleEndian" compressor="vtkZLibDataCompressor">
  <UnstructuredGrid>
    <FieldData>
      <DataArray type="Float64" Name="TIME" NumberOfTuples="1" format="ascii" RangeMin="0.45222770377" RangeMax="0.45222770377">
        0.45222770377
      </DataArray>
    </FieldData>
    <Piece NumberOfPoints="1000" NumberOfCells="0">
      <PointData>
        <DataArray type="Float64" Name="Damage" format="ascii" RangeMin="0" RangeMax="0.49719101124">
          0 0 0 0 0 0
          0 0 0 0 0 0.027932960894
          0 0 0 0 0 0
          0.027932960894 0 0 0.055084745763 0.071428571429 0.040345821326
          0.014164305949 0.012987012987 0.040345821326 0.071428571429 0.055084745763 0
          0 0.067669172932 0.11239193084 0.1074168798 0.037688442211 0.034562211982
          0.1074168798 0.11239193084 0.067669172932 0 0 0.074349442379
          0.16147308782 0.16834170854 0.12376237624 0.11286681716 0.16834170854 0.16147308782
          0.074349442379 0 0 0.084459459459 0.2 0.25806451613
          0.33860045147 0.39211618257 0.25806451613 0.2 0.084459459459 0
          0 0.093984962406 0.25360230548 0.36061381074 0.41959798995 0.46774193548
          0.36061381074 0.25360230548 0.093984962406 0 0 0.10593220339
          0.31493506494 0.40057636888 0.4447592068 0.49090909091 0.40057636888 0.31493506494
          0.10593220339 0 0 0.16759776536 0.3686440678 0.43984962406
          0.44609665428 0.49662162162 0.43984962406 0.3686440678 0.16759776536 0
          0 0.1677852349 0.36734693878 0.43891402715 0.44642857143 0.49593495935
          0.43891402715 0.36734693878 0.1677852349 0 0 0
          0 0 0 0 0 0
          0 0 0 0.027906976744 0 0
          0 0 0 0 0.027906976744 0
          0 0.056338028169 0.072776280323 0.040669856459 0.014117647059 0.012931034483
          0.040669856459 0.072776280323 0.056338028169 0 0 0.06875
          0.11483253589 0.10828025478 0.0375782881 0.034416826004 0.10828025478 0.11483253589
          0.06875 0 0 0.074303405573 0.16235294118 0.16910229645
          0.12371134021 0.11257035647 0.16910229645 0.16235294118 0.074303405573 0
          0 0.084269662921 0.20043103448 0.25812619503 0.33771106942 0.39242685026
          0.25812619503 0.20043103448 0.084269662921 0 0 0.09375
          0.25358851675 0.36093418259 0.41962421712 0.46845124283 0.36093418259 0.25358851675
          0.09375 0 0 0.10563380282 0.3153638814 0.4019138756
          0.44470588235 0.49137931034 0.4019138756 0.3153638814 0.10563380282 0
          0 0.16744186047 0.36971830986 0.440625 0.44582043344 0.49719101124
          0.440625 0.36971830986 0.16744186047 0 0 0.16759776536
          0.3686440678 0.43984962406 0.44609665428 0.49662162162 0.43984962406 0.3686440678
          0.16759776536 0 0 0 0 0
          0 0 0 0 0 0
          0 0.024647887324 0 0 0 0
          0 0 0.024647887324 0 0 0.051212938005
          0.06875 0.038817005545 0.012635379061 0.011666666667 0.038817005545 0.06875
          0.051212938005 0 0 0.064593301435 0.10905730129 0.10491803279
          0.036858974359 0.034023668639 0.10491803279 0.10905730129 0.064593301435 0
          0 0.070588235294 0.15523465704 0.16506410256 0.12283464567 0.11271676301
          0.16506410256 0.15523465704 0.070588235294 0 0 0.081896551724
          0.19333333333 0.25443786982 0.33959537572 0.38985313752 0.25443786982 0.19333333333
          0.081896551724 0 0 0.093301435407 0.24768946396 0.35573770492
          0.41987179487 0.46449704142 0.35573770492 0.24768946396 0.093301435407 0
          0 0.10781671159 0.30833333333 0.39556377079 0.4440433213 0.48666666667
          0.39556377079 0.30833333333 0.10781671159 0 0 0.16197183099
          0.35579514825 0.43062200957 0.44470588235 0.49137931034 0.43062200957 0.35579514825
          0.16197183099 0 0 0.16101694915 0.3538961039 0.42939481268
          0.4447592068 0.49090909091 0.42939481268 0.3538961039 0.16101694915 0
          0 0 0 0 0 0
          0 0 0 0 0 0.025
          0 0 0 0 0 0
          0.025 0 0 0.05023923445 0.068391866913 0.039344262295
          0.012820512821 0.011834319527 0.039344262295 0.068391866913 0.05023923445 0
          0 0.063694267516 0.10819672131 0.10465116279 0.036984352774 0.034120734908
          0.10465116279 0.10819672131 0.063694267516 0 0 0.070981210856
          0.15544871795 0.16500711238 0.12290502793 0.11282051282 0.16500711238 0.15544871795
          0.070981210856 0 0 0.082217973231 0.19378698225 0.25459317585
          0.33974358974 0.38981042654 0.25459317585 0.19378698225 0.082217973231 0
          0 0.093418259023 0.24918032787 0.35610465116 0.41963015647 0.46456692913
          0.35610465116 0.24918032787 0.093418259023 0 0 0.10765550239
          0.30868761553 0.39508196721 0.44391025641 0.48668639053 0.39508196721 0.30868761553
          0.10765550239 0 0 0.1625 0.35645933014 0.43099787686
          0.44467640919 0.4913957935 0.43099787686 0.35645933014 0.1625 0
          0 0.16165413534 0.35446685879 0.42966751918 0.44472361809 0.49078341014
          0.42966751918 0.35446685879 0.16165413534 0 0 0
          0 0 0 0 0 0
          0 0 0 0.02786377709 0 0
          0 0 0 0 0.02786377709 0
          0 0.054117647059 0.070397111913 0.040064102564 0.014173228346 0.013005780347
          0.040064102564 0.070397111913 0.054117647059 0 0 0.066805845511
          0.11057692308 0.106685633 0.037709497207 0.034615384615 0.106685633 0.11057692308
          0.066805845511 0 0 0.074226804124 0.16062992126 0.16759776536
          0.12362637363 0.11292346299 0.16759776536 0.16062992126 0.074226804124 0
          0 0.084427767355 0.19942196532 0.25769230769 0.33877038896 0.39145496536
          0.25769230769 0.19942196532 0.084427767355 0 0 0.093945720251
          0.25320512821 0.35988620199 0.41899441341 0.46666666667 0.35988620199 0.25320512821
          0.093945720251 0 0 0.10588235294 0.31407942238 0.39903846154
          0.44409448819 0.48988439306 0.39903846154 0.31407942238 0.10588235294 0
          0 0.16718266254 0.36705882353 0.43841336117 0.44536082474 0.49530956848
          0.43841336117 0.36705882353 0.16718266254 0 0 0.16728624535
          0.36543909348 0.43718592965 0.44554455446 0.49435665914 0.43718592965 0.36543909348
          0.16728624535 0 0 0 0 0
          0 0 0 0 0 0
          0 0.025280898876 0 0 0 0
          0 0 0.025280898876 0 0 0.049568965517
          0.066666666667 0.038461538462 0.013005780347 0.012016021362 0.038461538462 0.066666666667
          0.049568965517 0 0 0.06309751434 0.1050295858 0.10367454068
          0.037179487179 0.034360189573 0.10367454068 0.1050295858 0.06309751434 0
          0 0.071294559099 0.15462427746 0.1641025641 0.12296110414 0.11316397229
          0.1641025641 0.15462427746 0.071294559099 0 0 0.082616179002
          0.19359145527 0.25473933649 0.34064665127 0.38930481283 0.25473933649 0.19359145527
          0.082616179002 0 0 0.093690248566 0.24852071006 0.35564304462
          0.41923076923 0.46327014218 0.35564304462 0.24852071006 0.093690248566 0
          0 0.10775862069 0.30833333333 0.39349112426 0.4436416185 0.48598130841
          0.39349112426 0.30833333333 0.10775862069 0 0 0.16292134831
          0.35560344828 0.43021032505 0.44465290807 0.49053356282 0.43021032505 0.35560344828
          0.16292134831 0 0 0.16216216216 0.35324675325 0.42857142857
          0.44469525959 0.48962655602 0.42857142857 0.35324675325 0.16216216216 0
          0 0 0 0 0 0
          0 0 0 0 0 0.025
          0 0 0 0 0 0
          0.025 0 0 0.05023923445 0.068391866913 0.039344262295
          0.012820512821 0.011834319527 0.039344262295 0.068391866913 0.05023923445 0
          0 0.063694267516 0.10819672131 0.10465116279 0.036984352774 0.034120734908
          0.10465116279 0.10819672131 0.063694267516 0 0 0.070981210856
          0.15544871795 0.16500711238 0.12290502793 0.11282051282 0.16500711238 0.15544871795
          0.070981210856 0 0 0.082217973231 0.19378698225 0.25459317585
          0.33974358974 0.38981042654 0.25459317585 0.19378698225 0.082217973231 0
          0 0.093418259023 0.24918032787 0.35610465116 0.41963015647 0.46456692913
          0.35610465116 0.24918032787 0.093418259023 0 0 0.10765550239
          0.30868761553 0.39508196721 0.44391025641 0.48668639053 0.39508196721 0.30868761553
          0.10765550239 0 0 0.1625 0.35645933014 0.43099787686
          0.44467640919 0.4913957935 0.43099787686 0.35645933014 0.1625 0
          0 0.16165413534 0.35446685879 0.42966751918 0.44472361809 0.49078341014
          0.42966751918 0.35446685879 0.16165413534 0 0 0
          0 0 0 0 0 0
          0 0 0 0.024647887324 0 0
          0 0 0 0 0.024647887324 0
          0 0.051212938005 0.06875 0.038817005545 0.012635379061 0.011666666667
          0.038817005545 0.06875 0.051212938005 0 0 0.064593301435
          0.10905730129 0.10491803279 0.036858974359 0.034023668639 0.10491803279 0.10905730129
          0.064593301435 0 0 0.070588235294 0.15523465704 0.16506410256
          0.12283464567 0.11271676301 0.16506410256 0.15523465704 0.070588235294 0
          0 0.081896551724 0.19333333333 0.25443786982 0.33959537572 0.38985313752
          0.25443786982 0.19333333333 0.081896551724 0 0 0.093301435407
          0.24768946396 0.35573770492 0.41987179487 0.46449704142 0.35573770492 0.24768946396
          0.093301435407 0 0 0.10781671159 0.30833333333 0.39556377079
          0.4440433213 0.48666666667 0.39556377079 0.30833333333 0.10781671159 0
          0 0.16197183099 0.35579514825 0.43062200957 0.44470588235 0.49137931034
          0.43062200957 0.35579514825 0.16197183099 0 0 0.16101694915
          0.3538961039 0.42939481268 0.4447592068 0.49090909091 0.42939481268 0.3538961039
          0.16101694915 0 0 0 0 0
          0 0 0 0 0 0
          0 0.027906976744 0 0 0 0
          0 0 0.027906976744 0 0 0.056338028169
          0.072776280323 0.040669856459 0.014117647059 0.012931034483 0.040669856459 0.072776280323
          0.056338028169 0 0 0.06875 0.11483253589 0.10828025478
          0.0375782881 0.034416826004 0.10828025478 0.11483253589 0.06875 0
          0 0.074303405573 0.16235294118 0.16910229645 0.12371134021 0.11257035647
          0.16910229645 0.16235294118 0.074303405573 0 0 0.084269662921
          0.20043103448 0.25812619503 0.33771106942 0.39242685026 0.25812619503 0.20043103448
          0.084269662921 0 0 0.09375 0.25358851675 0.36093418259
          0.41962421712 0.46845124283 0.36093418259 0.25358851675 0.09375 0
          0 0.10563380282 0.3153638814 0.4019138756 0.44470588235 0.49137931034
          0.4019138756 0.3153638814 0.10563380282 0 0 0.16744186047
          0.36971830986 0.440625 0.44582043344 0.49719101124 0.440625 0.36971830986
          0.16744186047 0 0 0.16759776536 0.3686440678 0.43984962406
          0.44609665428 0.49662162162 0.43984962406 0.3686440678 0.16759776536 0
          0 0 0 0 0 0
          0 0 0 0 0 0.027932960894
          0 0 0 0 0 0
          0.027932960894 0 0 0.055084745763 0.071428571429 0.040345821326
          0.014164305949 0.012987012987 0.040345821326 0.071428571429 0.055084745763 0
          0 0.067669172932 0.11239193084 0.1074168798 0.037688442211 0.034562211982
          0.1074168798 0.11239193084 0.067669172932 0 0 0.074349442379
          0.16147308782 0.16834170854 0.12376237624 0.11286681716 0.16834170854 0.16147308782
          0.074349442379 0 0 0.084459459459 0.2 0.25806451613
          0.33860045147 0.39211618257 0.25806451613 0.2 0.084459459459 0
          0 0.093984962406 0.25360230548 0.36061381074 0.41959798995 0.46774193548
          0.36061381074 0.25360230548 0.093984962406 0 0 0.10593220339
          0.31493506494 0.40057636888 0.4447592068 0.49090909091 0.40057636888 0.31493506494
          0.10593220339 0 0 0.16759776536 0.3686440678 0.43984962406
          0.44609665428 0.49662162162 0.43984962406 0.3686440678 0.16759776536 0
          0 0.1677852349 0.36734693878 0.43891402715 0.44642857143 0.49593495935
          0.43891402715 0.36734693878 0.1677852349 0
        </DataArray>
        <DataArray type="Float64" Name="Displacement" NumberOfComponents="3" format="ascii" RangeMin="0.28463062061" RangeMax="0.30923267555">
          -0.02214288329 -0.28940593104 -0.065939804104 -0.024398406655 -0.29041682366 -0.063904205365
          -0.02358647173 -0.28967797528 -0.064666121106 -0.025182544117 -0.29150162266 -0.063756062087
          -0.024338817036 -0.29378826826 -0.062586184905 -0.024218069255 -0.29386972801 -0.06447296129
          -0.023270749227 -0.29483929575 -0.063413214928 -0.025223808343 -0.29507498889 -0.064084650201
          -0.024029465169 -0.29776842138 -0.063845585573 -0.026631384367 -0.29917334322 -0.065470796412
          -0.022905960153 -0.28906376448 -0.066229987332 -0.02500819134 -0.28816151088 -0.065418521358
          -0.023239073583 -0.28891601269 -0.06546308903 -0.022828352651 -0.28872409539 -0.067012501533
          -0.022753571501 -0.29045722628 -0.066427867936 -0.022955499943 -0.29195241686 -0.065832500043
          -0.023627825441 -0.29241631837 -0.066648731111 -0.02281041177 -0.29440660269 -0.06592013223
          -0.021358852513 -0.2958178093 -0.064874395401 -0.023636416408 -0.29890105339 -0.06597954177
          -0.022042707107 -0.28797669165 -0.066602914827 -0.022402817595 -0.28837446217 -0.065521240409
          -0.022404255394 -0.28988859276 -0.066760775739 -0.022518687013 -0.29080918487 -0.066340324292
          -0.02226868936 -0.29201891274 -0.066619134724 -0.021889694774 -0.29323276664 -0.066868709092
          -0.021381421623 -0.29423477534 -0.066089813764 -0.021580187403 -0.29528174217 -0.066738815357
          -0.021755957547 -0.29594273509 -0.065229935726 -0.022102589704 -0.29774129839 -0.066180432508
          -0.020093700515 -0.28821545548 -0.069209018372 -0.0220169236 -0.28848603066 -0.068356183606
          -0.021185045343 -0.28989882966 -0.068168193074 -0.020592791511 -0.29010835276 -0.068968945349
          -0.021056282984 -0.29267316059 -0.067481103551 -0.021076545782 -0.29274576509 -0.068046395367
          -0.02190093095 -0.29248102587 -0.069520920053 -0.020663589388 -0.29537306075 -0.06808085338
          -0.019930373754 -0.2959393562 -0.068099756211 -0.02173660234 -0.29791507415 -0.068809864096
          -0.021498847677 -0.28766646827 -0.068364353035 -0.020357805424 -0.28800199968 -0.06975019315
          -0.019928376797 -0.28974098317 -0.069825612192 -0.019302436513 -0.29070699275 -0.069446183097
          -0.020017742058 -0.29200521318 -0.069229080847 -0.019724535759 -0.29399081293 -0.069526644383
          -0.02032530664 -0.29386721082 -0.069163459244 -0.019780572968 -0.29518775475 -0.069918866615
          -0.019417334696 -0.29530789762 -0.069395001049 -0.01815333251 -0.29739398527 -0.068057801184
          -0.019060274406 -0.28887220299 -0.070542995032 -0.020178883208 -0.28942396582 -0.06974307128
          -0.019053526375 -0.29004548382 -0.07058442391 -0.018460314343 -0.29137950486 -0.070827687695
          -0.018833826313 -0.29227189495 -0.070921728754 -0.018853675312 -0.29337885557 -0.070462291726
          -0.018951988681 -0.29433992481 -0.070604352969 -0.018617776672 -0.29551791955 -0.070535747965
          -0.017517836449 -0.29696346639 -0.069259080382 -0.018477689591 -0.29841754722 -0.070337070299
          -0.018890670901 -0.28873095452 -0.07148497216 -0.019163360927 -0.28872856977 -0.071416161139
          -0.018503521181 -0.29007371428 -0.071218885759 -0.018845664304 -0.29161276663 -0.072008347898
          -0.020076743325 -0.29246764519 -0.072860198438 -0.015117593276 -0.29351161322 -0.073292435143
          -0.016606465324 -0.29482062943 -0.072040847323 -0.016859974513 -0.29528512007 -0.07117845079
          -0.016376241742 -0.29659219527 -0.070863394221 -0.016498272423 -0.2984363021 -0.071314049471
          -0.017836694147 -0.28809978224 -0.072796123969 -0.019073087562 -0.2895557346 -0.072155573244
          -0.016953650523 -0.29044681792 -0.073053137274 -0.015819380357 -0.29085224266 -0.072104896189
          -0.018608284792 -0.29143790039 -0.073439378914 -0.014457421222 -0.29252398984 -0.073719785429
          -0.017531445703 -0.29406184079 -0.072030365171 -0.016280692331 -0.29586058562 -0.072908241087
          -0.014040605715 -0.29710921621 -0.072045509221 -0.015123533606 -0.29780721575 -0.072466668925
          -0.017424123565 -0.28961906956 -0.07371159042 -0.016223342617 -0.28944138069 -0.074623489409
          -0.016811436068 -0.29199433845 -0.075832264017 -0.01709515815 -0.29231272962 -0.07601434953
          -0.015096720246 -0.29206239223 -0.073531988783 -0.016153488603 -0.29323542251 -0.073769860232
          -0.014113249101 -0.29583500465 -0.076025921645 -0.014358093248 -0.29779945436 -0.075828393937
          -0.015061088904 -0.29662606638 -0.074106678455 -0.013599604533 -0.29936041004 -0.073178268838
          -0.014077781091 -0.28788756147 -0.081302237367 -0.017120336705 -0.2899982997 -0.077668442831
          -0.014478129742 -0.29097288213 -0.075885021497 -0.016939560565 -0.28736224505 -0.072775596167
          -0.011477034738 -0.29598075754 -0.077855727695 -0.017308902791 -0.29683548211 -0.078083196362
          -0.01198625326 -0.29050360158 -0.0726578996 -0.014450795623 -0.29645997554 -0.075914800241
          -0.011789464494 -0.29773427036 -0.077641474026 -0.014319997437 -0.29804246385 -0.081181740848
          -0.023341269862 -0.288657916 -0.063670530467 -0.02250557346 -0.28885571763 -0.064558404609
          -0.023503038886 -0.28802648325 -0.065379179898 -0.024359958047 -0.28840092788 -0.065767338064
          -0.024548760282 -0.28919837835 -0.065808373963 -0.024017605255 -0.29080171525 -0.06607554701
          -0.02404417359 -0.29200818186 -0.06529450739 -0.024770040378 -0.29314244699 -0.065840075182
          -0.026159660122 -0.29623489987 -0.064518051235 -0.025419328958 -0.29813781171 -0.063143990999
          -0.024216383736 -0.2863006879 -0.064887959717 -0.023896418041 -0.28719668029 -0.06601901067
          -0.023391272048 -0.28872987447 -0.065378454036 -0.023506941475 -0.28925487525 -0.065473884428
          -0.023022519576 -0.2905723504 -0.065757324885 -0.022952805568 -0.29233547106 -0.064842940816
          -0.022825438129 -0.29220531257 -0.065575545468 -0.02315693966 -0.29413761111 -0.065390305905
          -0.022581955555 -0.29463025806 -0.06566005734 -0.022002064198 -0.29570180781 -0.064652857052
          -0.023023798751 -0.28663479279 -0.066355815271 -0.022734041102 -0.28759673403 -0.066587124326
          -0.021672773345 -0.2880085703 -0.067845017424 -0.021904538221 -0.28964006777 -0.066861543384
          -0.021929551653 -0.29048082267 -0.066904783845 -0.022145942128 -0.29144032021 -0.0670861391
          -0.022183884417 -0.29296002995 -0.066605373027 -0.022541513993 -0.29350561737 -0.067794252061
          -0.021478112912 -0.29504273148 -0.066420680706 -0.021204920976 -0.29631847323 -0.066204301281
          -0.020917864352 -0.28665083244 -0.069010545557 -0.021531423824 -0.28818658702 -0.067537981419
          -0.020868969269 -0.28865781283 -0.068422869411 -0.021063937289 -0.28985271559 -0.067841874859
          -0.0209904188 -0.29044431652 -0.068115308305 -0.021036016572 -0.29157362052 -0.068102397267
          -0.021025541516 -0.29314888936 -0.067835453696 -0.021017963911 -0.29420687525 -0.068046763786
          -0.020465811629 -0.29579884015 -0.067275497928 -0.021103501852 -0.29652442749 -0.068767935441
          -0.019756913549 -0.2882316717 -0.069649517375 -0.020451230106 -0.28805836832 -0.069049086412
          -0.020108780494 -0.28893360221 -0.06960674745 -0.020020751138 -0.28983295794 -0.069340837694
          -0.019888840801 -0.29050657359 -0.069243251634 -0.019999533511 -0.29159004314 -0.069249267618
          -0.019743791676 -0.2932019335 -0.069515075693 -0.019721136518 -0.29440069693 -0.069470485175
          -0.019378339134 -0.29560551092 -0.068926834137 -0.020162437685 -0.29790774181 -0.069340100457
          -0.020112100987 -0.28732999038 -0.069935205201 -0.01956561025 -0.2879769267 -0.070404258937
          -0.019373411839 -0.28896178002 -0.070453628747 -0.018979642349 -0.28984378117 -0.070643713764
          -0.019469849413 -0.29050968327 -0.070465208281 -0.018221479741 -0.29159537306 -0.070437913781
          -0.018571470446 -0.29302713098 -0.070415930187 -0.018061037045 -0.29436251001 -0.070089754444
          -0.018070638829 -0.29573296416 -0.070390656436 -0.017604500808 -0.29751485215 -0.069616542321
          -0.019528423777 -0.28710354261 -0.069773383681 -0.018674012497 -0.28822248354 -0.071789880661
          -0.017862277867 -0.28880328828 -0.071730519838 -0.017225389978 -0.28983607303 -0.071555222029
          -0.017942247388 -0.29053589126 -0.071328609414 -0.017496355055 -0.29164838621 -0.071238500241
          -0.018261073381 -0.29300100102 -0.07146552532 -0.017522929956 -0.2942378632 -0.071688875192
          -0.016806686697 -0.29599446357 -0.071642642913 -0.015935567682 -0.29675315529 -0.069444938855
          -0.018181789595 -0.28681901771 -0.071264429473 -0.018314034342 -0.28890212819 -0.073857749969
          -0.017816475633 -0.28914358589 -0.073491108365 -0.017573155952 -0.2894226873 -0.072575734825
          -0.017235981242 -0.29034650924 -0.072281683929 -0.01608094275 -0.29139195495 -0.07239292971
          -0.015619488624 -0.29268375579 -0.072442446982 -0.015579111468 -0.29455669599 -0.073263585674
          -0.015049404145 -0.2964028828 -0.073539176914 -0.015053114702 -0.29656081804 -0.071033491287
          -0.018546165774 -0.28843855943 -0.073021458936 -0.01762679416 -0.2882536151 -0.07373846601
          -0.0168597139 -0.28920659551 -0.074558524088 -0.016975557285 -0.28963879936 -0.074866094751
          -0.015599673607 -0.29103855355 -0.07370265663 -0.015408726661 -0.29207935798 -0.073627303988
          -0.014098122394 -0.29292653376 -0.074747689467 -0.014295859251 -0.29466181432 -0.074388727875
          -0.013507587682 -0.29584607117 -0.073484638981 -0.012620891296 -0.29822076398 -0.072731035663
          -0.013151179409 -0.28529427384 -0.075834421899 -0.013733882816 -0.28647211918 -0.07379116078
          -0.015429332586 -0.28895701769 -0.075548414443 -0.01839045397 -0.29059213554 -0.078773458412
          -0.018584665843 -0.28726819872 -0.074210767746 -0.010647728587 -0.28812180653 -0.074275718169
          -0.010408853737 -0.29406733331 -0.078444593844 -0.013508568804 -0.29441362339 -0.075411265308
          -0.015344877241 -0.29428386939 -0.073746443975 -0.015963191763 -0.29472488897 -0.075549895701
          -0.024304246257 -0.28517725094 -0.063794492744 -0.023855904409 -0.28657536375 -0.064596464673
          -0.024635702893 -0.2869721037 -0.064431334746 -0.024303328053 -0.28808987706 -0.06438746994
          -0.024394926228 -0.2884943235 -0.065375196618 -0.024131271455 -0.29008533645 -0.064804614673
          -0.024149784161 -0.29125083343 -0.06426465307 -0.023803680999 -0.29237601033 -0.064371622494
          -0.024783643913 -0.29407710765 -0.064339184592 -0.02412605898 -0.29478589034 -0.063482662923
          -0.022560224813 -0.28614920358 -0.066036377715 -0.023218114729 -0.28656837052 -0.065438293856
          -0.02297934332 -0.28763589715 -0.06544180235 -0.023152994869 -0.28805916348 -0.065746583363
          -0.023100861588 -0.28937594754 -0.06548393739 -0.023167581089 -0.29035621418 -0.065525620358
          -0.023155222905 -0.29136697544 -0.065546514929 -0.023564706887 -0.29328541046 -0.065256437798
          -0.023089837809 -0.29405541031 -0.065349019298 -0.023765627206 -0.29569587463 -0.065759730687
          -0.0230540237 -0.28538594675 -0.066078265105 -0.02252924917 -0.28644559844 -0.066700274098
          -0.022005503779 -0.28749155704 -0.0669467495 -0.022031317257 -0.2884272379 -0.066805284365
          -0.022096375806 -0.28941664914 -0.066708448582 -0.022094879763 -0.290467912 -0.066642424877
          -0.02215968267 -0.29173659318 -0.066582011712 -0.022181692668 -0.29294641283 -0.066769678862
          -0.021649403262 -0.29402846556 -0.066404672638 -0.021106165372 -0.29512754312 -0.065836242975
          -0.021645209624 -0.2854613557 -0.067445787318 -0.020762271537 -0.28677178573 -0.068201764997
          -0.021086782196 -0.28765077303 -0.067998801008 -0.021024490833 -0.28851579032 -0.067986071142
          -0.020963934342 -0.28948210408 -0.068032215542 -0.021033130066 -0.29043905206 -0.067875022741
          -0.020999614306 -0.29174609758 -0.067896590453 -0.020999928849 -0.29308894045 -0.06784906368
          -0.021245681456 -0.29434703457 -0.067870751864 -0.020447681378 -0.29528748771 -0.067157390163
          -0.019975644984 -0.28610507528 -0.069465200204 -0.020156903296 -0.28674909624 -0.069264580305
          -0.020054270147 -0.28768089262 -0.069325543331 -0.019946909086 -0.28856136443 -0.069271760688
          -0.019973559665 -0.28933305171 -0.069159665432 -0.019942115143 -0.29054549463 -0.069124189772
          -0.019938149565 -0.29178020325 -0.069183969737 -0.019712380545 -0.29314576094 -0.069159495752
          -0.019741569744 -0.29434710961 -0.069003814632 -0.019982647001 -0.295921482 -0.069143143574
          -0.019472864185 -0.28603151225 -0.070220789404 -0.018919943011 -0.28677199295 -0.070767772056
          -0.019497519626 -0.28784315005 -0.070540709023 -0.019278416568 -0.28866600942 -0.070542292522
          -0.019309963235 -0.2894576018 -0.070513414818 -0.018406478918 -0.29053363126 -0.070427627353
          -0.018568737493 -0.29191690906 -0.07044951682 -0.018215831825 -0.2932542258 -0.070454519363
          -0.018545885376 -0.29441585897 -0.070452879675 -0.01822110419 -0.29572882582 -0.069893092456
          -0.018483157148 -0.28612689781 -0.071949627841 -0.018478936876 -0.28677328121 -0.071716310122
          -0.018382252388 -0.28775985098 -0.071887744241 -0.018791472911 -0.28865670614 -0.071655207657
          -0.019007005353 -0.28926810404 -0.071753779448 -0.016780228644 -0.29040454388 -0.071821239799
          -0.016698154421 -0.29193126654 -0.071628156685 -0.01712663285 -0.29319701728 -0.071680241865
          -0.016973416046 -0.29440020434 -0.071484707873 -0.016955312236 -0.29606789952 -0.071615671066
          -0.017805524408 -0.28624571975 -0.072948025768 -0.017462655241 -0.28698208622 -0.073368650916
          -0.017964448309 -0.28769082265 -0.0730524584 -0.017738175072 -0.28891195605 -0.073499561733
          -0.017853092274 -0.28913432916 -0.073061528225 -0.015585101414 -0.29009046052 -0.072814743411
          -0.015475665806 -0.29217485272 -0.07345359823 -0.015332389103 -0.29295137094 -0.07263530169
          -0.016046500145 -0.29453544594 -0.073238352142 -0.01558252914 -0.29608749905 -0.072602109748
          -0.015687127697 -0.28503935192 -0.074555604838 -0.015928754632 -0.28670847869 -0.074497372895
          -0.016758568259 -0.28785432164 -0.074294437556 -0.01742048051 -0.28839684695 -0.074273790144
          -0.01801040967 -0.28844640105 -0.074730152724 -0.013112196561 -0.28959790675 -0.074679273102
          -0.013716810277 -0.29163365873 -0.074159827064 -0.014417293835 -0.29316402798 -0.074093856656
          -0.015126381464 -0.29412725885 -0.074272927717 -0.01534119156 -0.29463996079 -0.074338696351
          -0.011763841048 -0.28126953187 -0.073188625896 -0.018320073274 -0.28937057719 -0.076197093755
          -0.017712890124 -0.28857919199 -0.077272681201 -0.01871777157 -0.28896748068 -0.077266739908
          -0.018412529712 -0.28755974149 -0.076425418722 -0.010499516241 -0.28873149081 -0.076349289765
          -0.010493147023 -0.29230706406 -0.077108281803 -0.011373370438 -0.29406136026 -0.07711468195
          -0.010895292794 -0.29703358379 -0.075933997207 -0.01720205718 -0.2909028102 -0.072758820895
          -0.023486604984 -0.28398599543 -0.064190792012 -0.024992531641 -0.28448086168 -0.063997556209
          -0.02401185406 -0.28617776929 -0.063655090526 -0.024360275934 -0.28667596954 -0.064496525352
          -0.024362299641 -0.28786683868 -0.064238895132 -0.024223843199 -0.28910843796 -0.064139329709
          -0.024075267377 -0.29000278018 -0.064339368408 -0.024395388765 -0.29149249995 -0.063479084089
          -0.023366492463 -0.29205428674 -0.06363585534 -0.025000194797 -0.29371518472 -0.063938958644
          -0.02388705132 -0.28296760377 -0.065379158393 -0.023333352992 -0.28534634773 -0.065275210629
          -0.023085061362 -0.28615857212 -0.065417019614 -0.023047755418 -0.28725966712 -0.065382788453
          -0.023134819615 -0.28820575386 -0.065332406758 -0.023257180771 -0.28920642161 -0.065317097887
          -0.02338256994 -0.29055228785 -0.065250621845 -0.023273272664 -0.29147107657 -0.065408274023
          -0.022979266648 -0.29279820895 -0.064999943718 -0.022415562925 -0.29264028706 -0.065040998888
          -0.022156784931 -0.28445685509 -0.066704422165 -0.021888110164 -0.28559935222 -0.066742926096
          -0.021993769926 -0.28632928728 -0.066779094505 -0.021993647061 -0.28721073639 -0.066651197929
          -0.022060703758 -0.28814021371 -0.066634026777 -0.02205791116 -0.28918059386 -0.066642960342
          -0.022180458309 -0.29046736674 -0.066549842485 -0.022271855111 -0.29163254578 -0.066550629629
          -0.022360215459 -0.29312365944 -0.066496525628 -0.022077653568 -0.29410089195 -0.066370486815
          -0.020741158758 -0.28456532067 -0.068218927304 -0.020894942118 -0.28554793709 -0.068054601179
          -0.021048317302 -0.28644270657 -0.068009577304 -0.020993565749 -0.28733663948 -0.067952024175
          -0.020945241951 -0.28818402665 -0.067915202508 -0.021053619241 -0.28926929186 -0.067935754315
          -0.021144741741 -0.2905151073 -0.067910161952 -0.021099327965 -0.29185458494 -0.067803240304
          -0.021217202258 -0.2931242318 -0.067757546068 -0.02140167396 -0.29427328463 -0.06794289397
          -0.020174308255 -0.28522721802 -0.069335251701 -0.02024436538 -0.28552669391 -0.069201849107
          -0.020210824949 -0.28647116067 -0.069247959641 -0.020121918043 -0.2872922664 -0.069272102632