<?xml version="1.0"?>
<VTKFile type="UnstructuredGrid" version="0.1" byte_order="LittleEndian" compressor="vtkZLibDataCompressor">
  <UnstructuredGrid>
    <FieldData>
      <DataArray type="Float64" Name="TIME" NumberOfTuples="1" format="ascii" RangeMin="1.3114591137" RangeMax="1.3114591137">
        1.3114591137
      </DataArray>
    </FieldData>
    <Piece NumberOfPoints="1000" NumberOfCells="0">
      <PointData>
        <DataArray type="Float64" Name="Damage" format="ascii" RangeMin="0" RangeMax="0.5081300813">
          0.024193548387 0.006711409396 0 0 0 0
          0 0.010204081633 0.046979865772 0.12903225806 0.006711409396 0.027932960894
          0 0 0 0 0 0
          0.033519553073 0.013422818792 0 0.055084745763 0.071428571429 0.040345821326
          0.014164305949 0.012987012987 0.040345821326 0.071428571429 0.055084745763 0.0051020408163
          0 0.067669172932 0.11239193084 0.1074168798 0.037688442211 0.034562211982
          0.1074168798 0.11239193084 0.067669172932 0 0 0.074349442379
          0.16147308782 0.16834170854 0.12376237624 0.11286681716 0.16834170854 0.16147308782
          0.074349442379 0 0 0.084459459459 0.2 0.25806451613
          0.33860045147 0.39211618257 0.25806451613 0.2 0.084459459459 0
          0 0.093984962406 0.25360230548 0.36061381074 0.41959798995 0.46774193548
          0.36061381074 0.25360230548 0.093984962406 0 0 0.10593220339
          0.31493506494 0.40057636888 0.4447592068 0.49090909091 0.40057636888 0.31493506494
          0.10593220339 0 0 0.17318435754 0.3686440678 0.43984962406
          0.44981412639 0.5 0.43984962406 0.3686440678 0.17318435754 0.006711409396
          0.016129032258 0.18791946309 0.36734693878 0.44343891403 0.46428571429 0.5081300813
          0.44343891403 0.36734693878 0.18791946309 0.016129032258 0.006711409396 0
          0 0 0 0 0.0037593984962 0.012711864407
          0.016759776536 0.046979865772 0 0.027906976744 0 0
          0 0 0 0 0.032558139535 0
          0 0.056338028169 0.072776280323 0.040669856459 0.014117647059 0.012931034483
          0.040669856459 0.072776280323 0.056338028169 0 0 0.06875
          0.11483253589 0.10828025478 0.0375782881 0.034416826004 0.10828025478 0.11483253589
          0.06875 0 0 0.074303405573 0.16235294118 0.16910229645
          0.12371134021 0.11257035647 0.16910229645 0.16235294118 0.074303405573 0
          0 0.084269662921 0.20043103448 0.25812619503 0.33771106942 0.39242685026
          0.25812619503 0.20043103448 0.084269662921 0 0 0.09375
          0.25358851675 0.36093418259 0.41962421712 0.46845124283 0.36093418259 0.25358851675
          0.09375 0 0 0.10563380282 0.3153638814 0.4019138756
          0.44470588235 0.49137931034 0.4019138756 0.3153638814 0.10563380282 0
          0 0.16744186047 0.36971830986 0.440625 0.44582043344 0.49719101124
          0.440625 0.36971830986 0.16744186047 0 0.013422818792 0.17877094972
          0.3686440678 0.44360902256 0.44981412639 0.5 0.43984962406 0.3686440678
          0.17877094972 0.006711409396 0 0 0 0
          0 0 0.0028818443804 0.0064935064935 0.012711864407 0.020408163265
          0 0.024647887324 0 0 0 0
          0 0 0.028169014085 0 0 0.051212938005
          0.06875 0.038817005545 0.012635379061 0.011666666667 0.038817005545 0.06875
          0.051212938005 0 0 0.064593301435 0.10905730129 0.10491803279
          0.036858974359 0.034023668639 0.10491803279 0.10905730129 0.064593301435 0
          0 0.070588235294 0.15523465704 0.16506410256 0.12283464567 0.11271676301
          0.16506410256 0.15523465704 0.070588235294 0 0 0.081896551724
          0.19333333333 0.25443786982 0.33959537572 0.38985313752 0.25443786982 0.19333333333
          0.081896551724 0 0 0.093301435407 0.24768946396 0.35573770492
          0.41987179487 0.46449704142 0.35573770492 0.24768946396 0.093301435407 0
          0 0.10781671159 0.30833333333 0.39556377079 0.4440433213 0.48666666667
          0.39556377079 0.30833333333 0.10781671159 0 0 0.16197183099
          0.35579514825 0.43062200957 0.44470588235 0.49137931034 0.43062200957 0.35579514825
          0.16197183099 0 0 0.16101694915 0.3538961039 0.42939481268
          0.4447592068 0.49090909091 0.42939481268 0.3538961039 0.16101694915 0
          0 0 0 0 0 0
          0 0.0028818443804 0.0075187969925 0 0 0.025
          0 0 0 0 0 0
          0.025 0 0 0.05023923445 0.068391866913 0.039344262295
          0.012820512821 0.011834319527 0.039344262295 0.068391866913 0.05023923445 0
          0 0.063694267516 0.10819672131 0.10465116279 0.036984352774 0.034120734908
          0.10465116279 0.10819672131 0.063694267516 0 0 0.070981210856
          0.15544871795 0.16500711238 0.12290502793 0.11282051282 0.16500711238 0.15544871795
          0.070981210856 0 0 0.082217973231 0.19378698225 0.25459317585
          0.33974358974 0.38981042654 0.25459317585 0.19378698225 0.082217973231 0
          0 0.093418259023 0.24918032787 0.35610465116 0.41963015647 0.46456692913
          0.35610465116 0.24918032787 0.093418259023 0 0 0.10765550239
          0.30868761553 0.39508196721 0.44391025641 0.48668639053 0.39508196721 0.30868761553
          0.10765550239 0 0 0.1625 0.35645933014 0.43099787686
          0.44467640919 0.4913957935 0.43099787686 0.35645933014 0.1625 0
          0 0.16165413534 0.35446685879 0.42966751918 0.44472361809 0.49078341014
          0.42966751918 0.35446685879 0.16165413534 0 0 0
          0 0 0 0 0 0
          0 0 0 0.02786377709 0 0
          0 0 0 0 0.02786377709 0
          0 0.054117647059 0.070397111913 0.040064102564 0.014173228346 0.013005780347
          0.040064102564 0.070397111913 0.054117647059 0 0 0.066805845511
          0.11057692308 0.106685633 0.037709497207 0.034615384615 0.106685633 0.11057692308
          0.066805845511 0 0 0.074226804124 0.16062992126 0.16759776536
          0.12362637363 0.11292346299 0.16759776536 0.16062992126 0.074226804124 0
          0 0.084427767355 0.19942196532 0.25769230769 0.33877038896 0.39145496536
          0.25769230769 0.19942196532 0.084427767355 0 0 0.093945720251
          0.25320512821 0.35988620199 0.41899441341 0.46666666667 0.35988620199 0.25320512821
          0.093945720251 0 0 0.10588235294 0.31407942238 0.39903846154
          0.44409448819 0.48988439306 0.39903846154 0.31407942238 0.10588235294 0
          0 0.16718266254 0.36705882353 0.43841336117 0.44536082474 0.49530956848
          0.43841336117 0.36705882353 0.16718266254 0 0 0.16728624535
          0.36543909348 0.43718592965 0.44554455446 0.49435665914 0.43718592965 0.36543909348
          0.16728624535 0 0 0 0 0
          0 0 0 0 0 0
          0 0.025280898876 0 0 0 0
          0 0 0.025280898876 0 0 0.049568965517
          0.066666666667 0.038461538462 0.013005780347 0.012016021362 0.038461538462 0.066666666667
          0.049568965517 0 0 0.06309751434 0.1050295858 0.10367454068
          0.037179487179 0.034360189573 0.10367454068 0.1050295858 0.06309751434 0
          0 0.071294559099 0.15462427746 0.1641025641 0.12296110414 0.11316397229
          0.1641025641 0.15462427746 0.071294559099 0 0 0.082616179002
          0.19359145527 0.25473933649 0.34064665127 0.38930481283 0.25473933649 0.19359145527
          0.082616179002 0 0 0.093690248566 0.24852071006 0.35564304462
          0.41923076923 0.46327014218 0.35564304462 0.24852071006 0.093690248566 0
          0 0.10775862069 0.30833333333 0.39349112426 0.4436416185 0.48598130841
          0.39349112426 0.30833333333 0.10775862069 0 0 0.16292134831
          0.35560344828 0.43021032505 0.44465290807 0.49053356282 0.43021032505 0.35560344828
          0.16292134831 0 0 0.16216216216 0.35324675325 0.42857142857
          0.44469525959 0.48962655602 0.42857142857 0.35324675325 0.16216216216 0
          0.0045248868778 0.0037593984962 0 0 0 0
          0 0 0 0 0 0.025
          0 0 0 0 0 0
          0.025 0 0 0.05023923445 0.068391866913 0.039344262295
          0.012820512821 0.011834319527 0.039344262295 0.068391866913 0.05023923445 0
          0 0.063694267516 0.10819672131 0.10465116279 0.036984352774 0.034120734908
          0.10465116279 0.10819672131 0.063694267516 0 0 0.070981210856
          0.15544871795 0.16500711238 0.12290502793 0.11282051282 0.16500711238 0.15544871795
          0.070981210856 0 0 0.082217973231 0.19378698225 0.25459317585
          0.33974358974 0.38981042654 0.25459317585 0.19378698225 0.082217973231 0
          0 0.093418259023 0.24918032787 0.35610465116 0.41963015647 0.46456692913
          0.35610465116 0.24918032787 0.093418259023 0 0 0.10765550239
          0.30868761553 0.39508196721 0.44391025641 0.48668639053 0.39508196721 0.30868761553
          0.10765550239 0 0 0.1625 0.35645933014 0.43099787686
          0.44467640919 0.4913957935 0.43099787686 0.35645933014 0.1625 0
          0 0.16165413534 0.35446685879 0.42966751918 0.44472361809 0.49078341014
          0.42966751918 0.35446685879 0.16165413534 0 0.025510204082 0.0084745762712
          0 0 0 0 0 0
          0 0 0.0042372881356 0.024647887324 0 0
          0 0 0 0 0.024647887324 0
          0 0.051212938005 0.06875 0.038817005545 0.012635379061 0.011666666667
          0.038817005545 0.06875 0.051212938005 0 0 0.064593301435
          0.10905730129 0.10491803279 0.036858974359 0.034023668639 0.10491803279 0.10905730129
          0.064593301435 0 0 0.070588235294 0.15523465704 0.16506410256
          0.12283464567 0.11271676301 0.16506410256 0.15523465704 0.070588235294 0
          0 0.081896551724 0.19333333333 0.25443786982 0.33959537572 0.38985313752
          0.25443786982 0.19333333333 0.081896551724 0 0 0.093301435407
          0.24768946396 0.35573770492 0.41987179487 0.46449704142 0.35573770492 0.24768946396
          0.093301435407 0 0 0.10781671159 0.30833333333 0.39556377079
          0.4440433213 0.48666666667 0.39556377079 0.30833333333 0.10781671159 0
          0 0.16197183099 0.35579514825 0.43062200957 0.44470588235 0.49137931034
          0.43062200957 0.35579514825 0.16197183099 0 0 0.16101694915
          0.3538961039 0.42939481268 0.4447592068 0.49090909091 0.42939481268 0.3538961039
          0.16101694915 0 0.040268456376 0.011173184358 0.0084745762712 0
          0 0 0 0 0 0.006711409396
          0.011173184358 0.027906976744 0 0 0 0
          0 0 0.027906976744 0 0 0.056338028169
          0.072776280323 0.040669856459 0.014117647059 0.012931034483 0.040669856459 0.072776280323
          0.056338028169 0 0 0.06875 0.11483253589 0.10828025478
          0.0375782881 0.034416826004 0.10828025478 0.11483253589 0.06875 0
          0 0.074303405573 0.16235294118 0.16910229645 0.12371134021 0.11257035647
          0.16910229645 0.16235294118 0.074303405573 0 0 0.084269662921
          0.20043103448 0.25812619503 0.33771106942 0.39242685026 0.25812619503 0.20043103448
          0.084269662921 0 0 0.09375 0.25358851675 0.36093418259
          0.41962421712 0.46845124283 0.36093418259 0.25358851675 0.09375 0
          0 0.10563380282 0.3153638814 0.4019138756 0.44470588235 0.49137931034
          0.4019138756 0.3153638814 0.10563380282 0 0 0.16744186047
          0.36971830986 0.440625 0.44582043344 0.49719101124 0.440625 0.36971830986
          0.16744186047 0 0.006711409396 0.16759776536 0.3686440678 0.44360902256
          0.44981412639 0.5 0.43984962406 0.3686440678 0.17318435754 0.006711409396
          0.024193548387 0.046979865772 0.020408163265 0.0045248868778 0 0
          0 0 0 0.008064516129 0.026845637584 0.033519553073
          0.0042372881356 0 0 0 0 0
          0.027932960894 0 0.0051020408163 0.055084745763 0.071428571429 0.040345821326
          0.014164305949 0.012987012987 0.040345821326 0.071428571429 0.055084745763 0
          0 0.067669172932 0.11239193084 0.1074168798 0.037688442211 0.034562211982
          0.1074168798 0.11239193084 0.067669172932 0 0 0.074349442379
          0.16147308782 0.16834170854 0.12376237624 0.11286681716 0.16834170854 0.16147308782
          0.074349442379 0 0 0.084459459459 0.2 0.25806451613
          0.33860045147 0.39211618257 0.25806451613 0.2 0.084459459459 0
          0 0.093984962406 0.25360230548 0.36061381074 0.41959798995 0.46774193548
          0.36061381074 0.25360230548 0.093984962406 0 0 0.10593220339
          0.31493506494 0.40057636888 0.4447592068 0.49090909091 0.40057636888 0.31493506494
          0.10593220339 0 0.006711409396 0.16759776536 0.3686440678 0.43984962406
          0.44981412639 0.5 0.43984962406 0.3686440678 0.16759776536 0.006711409396
          0.024193548387 0.1744966443 0.36734693878 0.44343891403 0.46428571429 0.5081300813
          0.44343891403 0.36734693878 0.18120805369 0.024193548387
        </DataArray>
        <DataArray type="Float64" Name="Displacement" NumberOfComponents="3" format="ascii" RangeMin="0.31668363555" RangeMax="2.2809077538">
          -0.01714436885 1.77140821 -0.46186960434 -0.10918892852 1.8025829774 -0.36096476478
          -0.18248273466 1.8408001944 -0.25876660613 -0.27445792639 1.877587953 -0.16004401994
          -0.35548548782 1.9148308167 -0.058271470244 -0.43883863722 1.953752259 0.041563560766
          -0.52130048587 1.9908433912 0.14081867521 -0.60425502276 2.0280717857 0.24752937313
          -0.68733317779 2.0663152198 0.33808745475 -0.77807593944 2.090453453 0.47659455978
          -0.057937679911 1.5605513008 -0.42072501589 -0.14152540523 1.5983640352 -0.3183362203
          -0.22877520016 1.6351244523 -0.21303196329 -0.30644813173 1.6744789785 -0.11544191232
          -0.39269033492 1.7108909578 -0.013263040197 -0.47357606541 1.7486712323 0.088508028086
          -0.55439768976 1.7843787467 0.18886143135 -0.64161618784 1.820853746 0.29018349763
          -0.71824692742 1.8548903468 0.39262712435 -0.80285696317 1.8936237391 0.49367731361
          -0.099904595274 1.3571101788 -0.36994737755 -0.17856165432 1.3961005568 -0.27076119925
          -0.26190792025 1.4300940105 -0.17046309274 -0.34230347463 1.4683742151 -0.070151391501
          -0.42728609128 1.5061157462 0.031657782335 -0.50892245983 1.541190507 0.13201987807
          -0.59121964258 1.5787135134 0.23491702727 -0.67511721061 1.613496138 0.33645107559
          -0.76006545815 1.6503409781 0.43589538415 -0.83881462978 1.6893637437 0.53541782933
          -0.13542463434 1.1527411203 -0.32515864357 -0.21673815834 1.1900456781 -0.22390274289
          -0.29909623005 1.2248838066 -0.12353999484 -0.38116132802 1.2617690766 -0.02527808983
          -0.46266351863 1.2999641281 0.075379607787 -0.54421971901 1.3377126734 0.17679491888
          -0.62682496047 1.3713057567 0.28074002836 -0.71216495583 1.4066394104 0.3786130825
          -0.79607539113 1.4426146493 0.47901550672 -0.87770736595 1.4814985372 0.57996883244
          -0.17158103619 0.94716453741 -0.27865177189 -0.25175641913 0.98330939263 -0.1808394877
          -0.33444954559 1.019934403 -0.078719105242 -0.41865192718 1.0565467668 0.021127142459
          -0.50051754784 1.0930591335 0.1221897707 -0.5827236082 1.1303319101 0.22340736285
          -0.66576957032 1.165002659 0.3233660635 -0.74788827078 1.1994292284 0.42415658456
          -0.82885362546 1.2378968993 0.52499407393 -0.91533817245 1.273220194 0.62367849613
          -0.20692002585 0.73984300098 -0.23646275915 -0.28952587618 0.78034676054 -0.13356094431
          -0.37133538478 0.81353242705 -0.035067205205 -0.45600840673 0.85262660671 0.066843164897
          -0.5332185596 0.88718515128 0.16981607471 -0.61630460881 0.91648848847 0.26374850744
          -0.70011829169 0.9567388831 0.36675637335 -0.78334782852 0.99435232804 0.46909429939
          -0.8661010259 1.0312460495 0.56783423631 -0.94720857714 1.0673233042 0.66983358102
          -0.2412160174 0.53278319288 -0.19524763868 -0.32660705737 0.57100237709 -0.088939411233
          -0.40650912844 0.6059189222 0.010548601015 -0.490588438 0.64516494197 0.11141587823
          -0.57537830701 0.68164132725 0.21096632665 -0.65404014767 0.71508885925 0.31389058031
          -0.73627368318 0.75046767914 0.4134933755 -0.81942997623 0.78718907683 0.51309488116
          -0.90398207676 0.82065309635 0.6138198787 -0.9819870049 0.8613358972 0.71422439892
          -0.27932378641 0.32840218148 -0.14715865969 -0.36248897329 0.36630860908 -0.045597060924
          -0.44526261077 0.4020946451 0.056626310381 -0.52876821107 0.43861825585 0.15316081268
          -0.60471164686 0.47887010191 0.2602348727 -0.68511950377 0.50409806236 0.34851410591
          -0.77122369327 0.54351885369 0.45551469237 -0.85552727794 0.58127442598 0.55660360628
          -0.93835166406 0.61907413272 0.65826570753 -1.0238642299 0.65400913801 0.75633060454
          -0.32026002509 0.12306143663 -0.094321565616 -0.40180078039 0.16267706418 0.001367976041
          -0.48193654778 0.19676499124 0.10212387412 -0.56158814307 0.23298131405 0.20572999491
          -0.64862315361 0.26891420118 0.29880577928 -0.7240723819 0.29925805991 0.39699575616
          -0.80761965906 0.3369431513 0.50196961301 -0.89038916116 0.37345397844 0.60214426907
          -0.97596263307 0.41261178499 0.70098342882 -1.0605135116 0.45044262704 0.80381225775
          -0.34569840472 -0.092805790039 -0.060569635931 -0.43632458061 -0.04988238776 0.054244356899
          -0.51834085506 -0.0026546340908 0.14758104158 -0.60467036752 0.034404589648 0.25014172753
          -0.6867423388 0.071085353466 0.35049007605 -0.76481686771 0.098569816886 0.46000457621
          -0.84433537352 0.12377335931 0.53781017299 -0.92613566212 0.16353486123 0.64027904454
          -1.0124989009 0.19747158899 0.74230275134 -1.0917618348 0.22674919675 0.84540343485
          0.078617393481 1.7259208039 -0.58838527731 -0.00096930529281 1.7632362105 -0.48437314205
          -0.086523872893 1.7996293285 -0.38139437261 -0.16872513666 1.8348324423 -0.28385751449
          -0.24953712939 1.871504713 -0.18408697747 -0.33386147552 1.9093365104 -0.082544383363
          -0.41799042087 1.9460553199 0.019894857653 -0.50193384315 1.9811533785 0.12296819412
          -0.58845204813 2.0199632372 0.22596243769 -0.66680843733 2.0517939839 0.3326436549
          0.041218050886 1.5161361067 -0.54127360633 -0.041048240202 1.5557025087 -0.43850198683
          -0.12277262601 1.5917500884 -0.33874218411 -0.20723074891 1.6278327315 -0.23544942808
          -0.29033089903 1.6663367863 -0.13656631533 -0.37221936194 1.7048786274 -0.034588892245
          -0.45427895272 1.7340632919 0.06319603933 -0.53786350279 1.7768234454 0.16753497045
          -0.62049624606 1.8119298605 0.26610247147 -0.70115559851 1.8488644539 0.36870921081
          0.0025264791173 1.3129244083 -0.49421714231 -0.078862415664 1.348811137 -0.39373555348
          -0.16201742271 1.3865359587 -0.29240139063 -0.2441556699 1.4241188013 -0.19100478553
          -0.3261031999 1.4590535788 -0.092073462998 -0.40736669915 1.4963801071 0.0086936965944
          -0.49160731774 1.5335650043 0.10863910228 -0.57535231811 1.5696817202 0.21116567258
          -0.65748632057 1.6062802593 0.31106205882 -0.74128833554 1.6430205473 0.4124068907
          -0.030033935218 1.1068426199 -0.45233771623 -0.11476666805 1.1431218127 -0.35027039572
          -0.19765825739 1.1816422265 -0.25003371433 -0.28093108189 1.2154644784 -0.14704208143
          -0.36182120943 1.2538160035 -0.046018850555 -0.44438290601 1.2904839333 0.054809998958
          -0.52682923304 1.326296422 0.15753275987 -0.60966513704 1.3642701906 0.25693577071
          -0.69356668103 1.3996764836 0.35670049583 -0.77316184963 1.4360018177 0.45797618138
          -0.0709628145 0.90113418189 -0.40416784953 -0.15154457427 0.93727694807 -0.3040942901
          -0.23417225052 0.97444073095 -0.20367483696 -0.31682304703 1.0117646677 -0.10211936861
          -0.39902798117 1.0482247023 -0.0012852074147 -0.48100774166 1.0841261632 0.099791262317
          -0.56414274218 1.1196442925 0.20044785526 -0.64480596341 1.157943621 0.30010466467
          -0.72914214772 1.1939350214 0.40232213535 -0.81154497156 1.2311946901 0.50274570875
          -0.10640022967 0.69344601742 -0.35893722406 -0.18776445246 0.73191828818 -0.25907381685
          -0.2709281262 0.76977014541 -0.15745848324 -0.35263961203 0.80546005095 -0.056782033365
          -0.43565325978 0.84378620532 0.042368689343 -0.51507078787 0.87765768264 0.14250320052
          -0.59912648739 0.9119816742 0.24370207152 -0.68184156476 0.95163827254 0.34655314284
          -0.76587876619 0.98655102147 0.44644345921 -0.84628676233 1.0237232207 0.54806925914
          -0.14314392518 0.4897805578 -0.31361680685 -0.22510504001 0.5251223222 -0.21447866087
          -0.30650814284 0.56279902036 -0.11299382342 -0.38779985837 0.59941138415 -0.011282744925
          -0.47182736447 0.63811865289 0.089067017451 -0.55194145654 0.66983121263 0.18634913545
          -0.63414817759 0.70557582994 0.28762161261 -0.71715477122 0.7442498498 0.39075357109
          -0.80135902463 0.78083340444 0.48913892838 -0.88625784207 0.81642847424 0.59167579919
          -0.18043344208 0.28383951918 -0.26743653796 -0.26197271425 0.32219922058 -0.16974763802
          -0.34425190264 0.35772501476 -0.067931528742 -0.42566970991 0.39517445082 0.03294814806
          -0.50888235213 0.43087026622 0.13345292234 -0.58820071336 0.4633688179 0.23414522507
          -0.67113080073 0.50053943613 0.33313489559 -0.754529724 0.53841014586 0.43505814601
          -0.83776532823 0.57548962588 0.53550939027 -0.92301731382 0.61081278662 0.6365692696
          -0.21607669532 0.07851101926 -0.22334615247 -0.29979281666 0.11756025414 -0.12275592877
          -0.38017472614 0.15223478599 -0.021478857962 -0.46224841692 0.18917411054 0.080082613944
          -0.54575605976 0.22544715412 0.17835118038 -0.62314086347 0.25618021461 0.27836640128
          -0.70666583052 0.29217786139 0.37823960068 -0.78931475672 0.33025393299 0.47863002177
          -0.87386358208 0.36729802112 0.57952133373 -0.95432356221 0.40808797757 0.68207313314
          -0.25441891429 -0.1229419469 -0.17862389082 -0.33619247575 -0.091164845792 -0.076599800972
          -0.41692275635 -0.053846727969 0.022638677236 -0.4987076035 -0.014942476858 0.12237536303
          -0.58238038407 0.019529642665 0.22439625107 -0.65826484111 0.046842540143 0.32300080109
          -0.73946243309 0.087294403998 0.42551798818 -0.8246140457 0.12240571186 0.52530248371
          -0.90742064673 0.16504640571 0.6263166048 -0.99857347901 0.19500205692 0.72369658424
          0.180151234 1.6756047677 -0.71038713685 0.091691947441 1.7132704545 -0.60616927858
          0.011202577975 1.7544428406 -0.5073635682 -0.070404306095 1.7892230572 -0.40668118795
          -0.15291524824 1.8286408817 -0.30333069726 -0.23633927913 1.8676397946 -0.20404285272
          -0.31792652433 1.9029952117 -0.10453977711 -0.40074088683 1.9398997741 -0.0025733271692
          -0.48481607502 1.9740927668 0.099553296378 -0.56955409038 2.0101197913 0.189019033
          0.14133604879 1.4739246437 -0.66288043565 0.059171601777 1.5099657958 -0.56237071266
          -0.024540637526 1.5474331637 -0.46193841916 -0.10545941241 1.5860539665 -0.360230714
          -0.1905216361 1.6199497318 -0.25908487663 -0.2720672738 1.657742983 -0.15897959768
          -0.35369696348 1.6946241949 -0.059216795396 -0.43713805058 1.7309789533 0.042237160731
          -0.51949220414 1.7685922419 0.14451460952 -0.60253134035 1.8060055027 0.2425345885
          0.10352620716 1.267067081 -0.61761661837 0.023143784868 1.3036928932 -0.5181589236
          -0.060161393399 1.3406337471 -0.41586707708 -0.14319929753 1.3785664358 -0.31615305806
          -0.22521928247 1.4156805692 -0.21476010547 -0.30844045526 1.4522843434 -0.11446326046
          -0.39023478733 1.4891793331 -0.012899191776 -0.47258641981 1.5251831561 0.086478864542
          -0.55585539459 1.5609822067 0.18710241171 -0.63789732311 1.5986706678 0.28997029482
          0.071131913816 1.0612486669 -0.57143225421 -0.013695288004 1.0971656977 -0.47192124016
          -0.095867591057 1.135728698 -0.37140027319 -0.17806977346 1.1725811614 -0.27131789186
          -0.26093404566 1.2093534933 -0.17012417473 -0.3436606065 1.2461382622 -0.068904915676
          -0.42609453053 1.2816093313 0.031252421827 -0.5089888292 1.3185866461 0.13210144438
          -0.59260386392 1.354734752 0.23328542602 -0.67279657773 1.3906765127 0.33105431351
          0.031879603293 0.8546328889 -0.52668035178 -0.050426315638 0.89193532633 -0.4289108548
          -0.13233947333 0.93025125231 -0.32706734238 -0.21521518495 0.96633272119 -0.22511043331
          -0.29735817744 1.0049077807 -0.12686614495 -0.37967592398 1.0386099525 -0.024319801552
          -0.46284926359 1.0745833013 0.075787325356 -0.54429179234 1.1120962703 0.17733181374
          -0.62801395837 1.1497553605 0.27883076403 -0.71009203363 1.1869642009 0.37830342496
          -0.0044313029117 0.64997793229 -0.48179569519 -0.08709085231 0.68663767282 -0.38323243236
          -0.1694662195 0.72405417212 -0.2823083205 -0.25191822398 0.76078525407 -0.18036575992
          -0.33503574018 0.79867153731 -0.08053212473 -0.41483287354 0.83156981633 0.020114062157
          -0.49753445215 0.86871287845 0.12104992841 -0.58065778817 0.90598897978 0.22251154241
          -0.66383282048 0.94458440332 0.3230830155 -0.7454479457 0.97929547737 0.42256999032
          -0.040700166155 0.44406776817 -0.43836164049 -0.12263981511 0.48068675121 -0.33628484337
          -0.20478448084 0.51853915711 -0.23572005286 -0.28849016762 0.55413164956 -0.13667471302
          -0.37053367794 0.59231327595 -0.03334894627 -0.45149889112 0.62588611725 0.064830175566
          -0.53361502784 0.66264394961 0.16630323389 -0.6154070171 0.69859222062 0.26588874335
          -0.69849579969 0.7371505311 0.36790931551 -0.78194578676 0.77348770096 0.46852266681
          -0.077794954176 0.23960993654 -0.3913352981 -0.1599203446 0.27527229364 -0.29196039811
          -0.23861810657 0.31481792469 -0.19118565293 -0.32584992888 0.35055903621 -0.090115648666
          -0.40672675603 0.38778957065 0.01022537376 -0.48582490252 0.42000418531 0.11105846354
          -0.56945920705 0.4568829265 0.2103901768 -0.65004155076 0.49436280995 0.30989868385
          -0.73544953646 0.53080014898 0.41189810134 -0.81851459213 0.56610114159 0.51146058112
          -0.11414385371 0.033233632576 -0.3489412259 -0.19753238335 0.069810937431 -0.2456144116
          -0.27876446217 0.10694041391 -0.1438309221 -0.36123801644 0.14464722507 -0.04526871179
          -0.44351802695 0.18209195297 0.056918767082 -0.52203332989 0.21364677371 0.15247575511
          -0.60421290313 0.24936656274 0.25491139245 -0.68766977375 0.28530999936 0.35628397591
          -0.7709257588 0.32295914551 0.45800002265 -0.85374492883 0.36050314626 0.55886664632
          -0.1515714584 -0.16963255466 -0.30207188346 -0.2336255394 -0.13572516632 -0.20243600096
          -0.31489907822 -0.097704566705 -0.10016508295 -0.39715987625 -0.058339889982 0.0016726461399
          -0.4815693848 -0.025690120522 0.099549846729 -0.55645668935 0.0065395223523 0.20097447953
          -0.64116767342 0.043211299924 0.29540949474 -0.72266517289 0.078840234455 0.40003281556
          -0.8071334915 0.11696748018 0.50277090947 -0.888938902 0.15452346126 0.60350724896
          0.27312049783 1.6270911892 -0.83648697792 0.19581261927 1.6722250763 -0.73200904213
          0.11405128643 1.7098128287 -0.62661319003 0.030912495555 1.74609425 -0.53013049452
          -0.053701267573 1.7845371395 -0.42923080982 -0.13422871051 1.8205533141 -0.32794156241
          -0.21775048376 1.8574372252 -0.22657594179 -0.29935903867 1.8942822989 -0.12846736398
          -0.38239624398 1.9309849959 -0.025432445512 -0.46812250335 1.9714909825 0.073304713337
          0.2440921911 1.4323971435 -0.78486324878 0.15826604938 1.4655280983 -0.68563446475
          0.07743886115 1.5035434199 -0.58613525032 -0.0051236625359 1.5389722432 -0.4852057036
          -0.088510898589 1.5768568054 -0.38345072979 -0.17050578142 1.6138429642 -0.28311652786
          -0.25116670823 1.6506237098 -0.18122439093 -0.3356025846 1.6876730324 -0.079919433243
          -0.41832241194 1.7241936767 0.019361032751 -0.50327854486 1.762365682 0.11905616267
          0.20777094192 1.2233686025 -0.73793469827 0.1232266058 1.258540398 -0.64126046595
          0.041470923777 1.2980628007 -0.54166441711 -0.041283692297 1.334482886 -0.43955725219
          -0.12388241948 1.3712388509 -0.338646567 -0.2063703097 1.4079711314 -0.23771233304
          -0.28901399292 1.4450763713 -0.13717507816 -0.37191836125 1.4821689502 -0.036148622444
          -0.45339045063 1.5178347848 0.064699283459 -0.53705016362 1.5538807332 0.16206266362
          0.17063412726 1.0157846826 -0.69702758745 0.087471991836 1.0530560149 -0.5952883413
          0.0040950993573 1.0913142888 -0.49333388007 -0.077625413979 1.1281403112 -0.39428131254
          -0.16006092003 1.1648519308 -0.29357279461 -0.24248302428 1.2018209006 -0.19279412483
          -0.32514579102 1.2382173042 -0.091873392601 -0.40915656216 1.2744653328 0.0078555746653
          -0.4899505388 1.3116755609 0.11014838455 -0.57335794385 1.3488892839 0.21050020066
          0.12905718093 0.8111271161 -0.65130354822 0.050887952759 0.84832370346 -0.55084400328
          -0.032166903276 0.88533671389 -0.45038297519 -0.11427542988 0.92182073059 -0.3476073781
          -0.19632339686 0.95899465959 -0.24850869352 -0.27820290477 0.99562221369 -0.14786320694
          -0.36108303577 1.0318571668 -0.047080833668 -0.44377403068 1.0689191492 0.053986694806
          -0.52619095308 1.1053801273 0.15411110264 -0.60903220478 1.143774814 0.25708332545
          0.096705402314 0.60559728701 -0.60498632388 0.01438231685 0.642608589 -0.50512695002
          -0.068398298635 0.67947550657 -0.4039880148 -0.15083594332 0.71655241939 -0.30398735516
          -0.23333404296 0.75307970851 -0.20348011301 -0.31431136295 0.78912659009 -0.10234169473
          -0.39747319956 0.82593367417 -0.0025635276124 -0.47979501074 0.86236969904 0.098461388459