<?xml version="1.0"?>
<VTKFile type="UnstructuredGrid" version="0.1" byte_order="LittleEndian" compressor="vtkZLibDataCompressor">
  <UnstructuredGrid>
    <FieldData>
      <DataArray type="Float64" Name="TIME" NumberOfTuples="1" format="ascii" RangeMin="1.1235022428" RangeMax="1.1235022428">
        1.1235022428
      </DataArray>
    </FieldData>
    <Piece NumberOfPoints="1000" NumberOfCells="0">
      <PointData>
        <DataArray type="Float64" Name="Damage" format="ascii" RangeMin="0" RangeMax="0.5081300813">
          0.016129032258 0.006711409396 0 0 0 0
          0 0 0 0 0 0.027932960894
          0 0 0 0 0 0
          0.027932960894 0 0 0.055084745763 0.071428571429 0.040345821326
          0.014164305949 0.012987012987 0.040345821326 0.071428571429 0.055084745763 0
          0 0.067669172932 0.11239193084 0.1074168798 0.037688442211 0.034562211982
          0.1074168798 0.11239193084 0.067669172932 0 0 0.074349442379
          0.16147308782 0.16834170854 0.12376237624 0.11286681716 0.16834170854 0.16147308782
          0.074349442379 0 0 0.084459459459 0.2 0.25806451613
          0.33860045147 0.39211618257 0.25806451613 0.2 0.084459459459 0
          0 0.093984962406 0.25360230548 0.36061381074 0.41959798995 0.46774193548
          0.36061381074 0.25360230548 0.093984962406 0 0 0.10593220339
          0.31493506494 0.40057636888 0.4447592068 0.49090909091 0.40057636888 0.31493506494
          0.10593220339 0 0 0.17318435754 0.3686440678 0.43984962406
          0.44981412639 0.5 0.43984962406 0.3686440678 0.17318435754 0.006711409396
          0.016129032258 0.18791946309 0.36734693878 0.44343891403 0.46428571429 0.5081300813
          0.44343891403 0.36734693878 0.18791946309 0.016129032258 0.006711409396 0
          0 0 0 0 0 0
          0 0 0 0.027906976744 0 0
          0 0 0 0 0.027906976744 0
          0 0.056338028169 0.072776280323 0.040669856459 0.014117647059 0.012931034483
          0.040669856459 0.072776280323 0.056338028169 0 0 0.06875
          0.11483253589 0.10828025478 0.0375782881 0.034416826004 0.10828025478 0.11483253589
          0.06875 0 0 0.074303405573 0.16235294118 0.16910229645
          0.12371134021 0.11257035647 0.16910229645 0.16235294118 0.074303405573 0
          0 0.084269662921 0.20043103448 0.25812619503 0.33771106942 0.39242685026
          0.25812619503 0.20043103448 0.084269662921 0 0 0.09375
          0.25358851675 0.36093418259 0.41962421712 0.46845124283 0.36093418259 0.25358851675
          0.09375 0 0 0.10563380282 0.3153638814 0.4019138756
          0.44470588235 0.49137931034 0.4019138756 0.3153638814 0.10563380282 0
          0 0.16744186047 0.36971830986 0.440625 0.44582043344 0.49719101124
          0.440625 0.36971830986 0.16744186047 0 0.013422818792 0.17877094972
          0.3686440678 0.44360902256 0.44981412639 0.5 0.43984962406 0.3686440678
          0.17877094972 0.006711409396 0 0 0 0
          0 0 0 0 0 0
          0 0.024647887324 0 0 0 0
          0 0 0.024647887324 0 0 0.051212938005
          0.06875 0.038817005545 0.012635379061 0.011666666667 0.038817005545 0.06875
          0.051212938005 0 0 0.064593301435 0.10905730129 0.10491803279
          0.036858974359 0.034023668639 0.10491803279 0.10905730129 0.064593301435 0
          0 0.070588235294 0.15523465704 0.16506410256 0.12283464567 0.11271676301
          0.16506410256 0.15523465704 0.070588235294 0 0 0.081896551724
          0.19333333333 0.25443786982 0.33959537572 0.38985313752 0.25443786982 0.19333333333
          0.081896551724 0 0 0.093301435407 0.24768946396 0.35573770492
          0.41987179487 0.46449704142 0.35573770492 0.24768946396 0.093301435407 0
          0 0.10781671159 0.30833333333 0.39556377079 0.4440433213 0.48666666667
          0.39556377079 0.30833333333 0.10781671159 0 0 0.16197183099
          0.35579514825 0.43062200957 0.44470588235 0.49137931034 0.43062200957 0.35579514825
          0.16197183099 0 0 0.16101694915 0.3538961039 0.42939481268
          0.4447592068 0.49090909091 0.42939481268 0.3538961039 0.16101694915 0
          0 0 0 0 0 0
          0 0 0 0 0 0.025
          0 0 0 0 0 0
          0.025 0 0 0.05023923445 0.068391866913 0.039344262295
          0.012820512821 0.011834319527 0.039344262295 0.068391866913 0.05023923445 0
          0 0.063694267516 0.10819672131 0.10465116279 0.036984352774 0.034120734908
          0.10465116279 0.10819672131 0.063694267516 0 0 0.070981210856
          0.15544871795 0.16500711238 0.12290502793 0.11282051282 0.16500711238 0.15544871795
          0.070981210856 0 0 0.082217973231 0.19378698225 0.25459317585
          0.33974358974 0.38981042654 0.25459317585 0.19378698225 0.082217973231 0
          0 0.093418259023 0.24918032787 0.35610465116 0.41963015647 0.46456692913
          0.35610465116 0.24918032787 0.093418259023 0 0 0.10765550239
          0.30868761553 0.39508196721 0.44391025641 0.48668639053 0.39508196721 0.30868761553
          0.10765550239 0 0 0.1625 0.35645933014 0.43099787686
          0.44467640919 0.4913957935 0.43099787686 0.35645933014 0.1625 0
          0 0.16165413534 0.35446685879 0.42966751918 0.44472361809 0.49078341014
          0.42966751918 0.35446685879 0.16165413534 0 0 0
          0 0 0 0 0 0
          0 0 0 0.02786377709 0 0
          0 0 0 0 0.02786377709 0
          0 0.054117647059 0.070397111913 0.040064102564 0.014173228346 0.013005780347
          0.040064102564 0.070397111913 0.054117647059 0 0 0.066805845511
          0.11057692308 0.106685633 0.037709497207 0.034615384615 0.106685633 0.11057692308
          0.066805845511 0 0 0.074226804124 0.16062992126 0.16759776536
          0.12362637363 0.11292346299 0.16759776536 0.16062992126 0.074226804124 0
          0 0.084427767355 0.19942196532 0.25769230769 0.33877038896 0.39145496536
          0.25769230769 0.19942196532 0.084427767355 0 0 0.093945720251
          0.25320512821 0.35988620199 0.41899441341 0.46666666667 0.35988620199 0.25320512821
          0.093945720251 0 0 0.10588235294 0.31407942238 0.39903846154
          0.44409448819 0.48988439306 0.39903846154 0.31407942238 0.10588235294 0
          0 0.16718266254 0.36705882353 0.43841336117 0.44536082474 0.49530956848
          0.43841336117 0.36705882353 0.16718266254 0 0 0.16728624535
          0.36543909348 0.43718592965 0.44554455446 0.49435665914 0.43718592965 0.36543909348
          0.16728624535 0 0 0 0 0
          0 0 0 0 0 0
          0 0.025280898876 0 0 0 0
          0 0 0.025280898876 0 0 0.049568965517
          0.066666666667 0.038461538462 0.013005780347 0.012016021362 0.038461538462 0.066666666667
          0.049568965517 0 0 0.06309751434 0.1050295858 0.10367454068
          0.037179487179 0.034360189573 0.10367454068 0.1050295858 0.06309751434 0
          0 0.071294559099 0.15462427746 0.1641025641 0.12296110414 0.11316397229
          0.1641025641 0.15462427746 0.071294559099 0 0 0.082616179002
          0.19359145527 0.25473933649 0.34064665127 0.38930481283 0.25473933649 0.19359145527
          0.082616179002 0 0 0.093690248566 0.24852071006 0.35564304462
          0.41923076923 0.46327014218 0.35564304462 0.24852071006 0.093690248566 0
          0 0.10775862069 0.30833333333 0.39349112426 0.4436416185 0.48598130841
          0.39349112426 0.30833333333 0.10775862069 0 0 0.16292134831
          0.35560344828 0.43021032505 0.44465290807 0.49053356282 0.43021032505 0.35560344828
          0.16292134831 0 0 0.16216216216 0.35324675325 0.42857142857
          0.44469525959 0.48962655602 0.42857142857 0.35324675325 0.16216216216 0
          0 0 0 0 0 0
          0 0 0 0 0 0.025
          0 0 0 0 0 0
          0.025 0 0 0.05023923445 0.068391866913 0.039344262295
          0.012820512821 0.011834319527 0.039344262295 0.068391866913 0.05023923445 0
          0 0.063694267516 0.10819672131 0.10465116279 0.036984352774 0.034120734908
          0.10465116279 0.10819672131 0.063694267516 0 0 0.070981210856
          0.15544871795 0.16500711238 0.12290502793 0.11282051282 0.16500711238 0.15544871795
          0.070981210856 0 0 0.082217973231 0.19378698225 0.25459317585
          0.33974358974 0.38981042654 0.25459317585 0.19378698225 0.082217973231 0
          0 0.093418259023 0.24918032787 0.35610465116 0.41963015647 0.46456692913
          0.35610465116 0.24918032787 0.093418259023 0 0 0.10765550239
          0.30868761553 0.39508196721 0.44391025641 0.48668639053 0.39508196721 0.30868761553
          0.10765550239 0 0 0.1625 0.35645933014 0.43099787686
          0.44467640919 0.4913957935 0.43099787686 0.35645933014 0.1625 0
          0 0.16165413534 0.35446685879 0.42966751918 0.44472361809 0.49078341014
          0.42966751918 0.35446685879 0.16165413534 0 0 0
          0 0 0 0 0 0
          0 0 0 0.024647887324 0 0
          0 0 0 0 0.024647887324 0
          0 0.051212938005 0.06875 0.038817005545 0.012635379061 0.011666666667
          0.038817005545 0.06875 0.051212938005 0 0 0.064593301435
          0.10905730129 0.10491803279 0.036858974359 0.034023668639 0.10491803279 0.10905730129
          0.064593301435 0 0 0.070588235294 0.15523465704 0.16506410256
          0.12283464567 0.11271676301 0.16506410256 0.15523465704 0.070588235294 0
          0 0.081896551724 0.19333333333 0.25443786982 0.33959537572 0.38985313752
          0.25443786982 0.19333333333 0.081896551724 0 0 0.093301435407
          0.24768946396 0.35573770492 0.41987179487 0.46449704142 0.35573770492 0.24768946396
          0.093301435407 0 0 0.10781671159 0.30833333333 0.39556377079
          0.4440433213 0.48666666667 0.39556377079 0.30833333333 0.10781671159 0
          0 0.16197183099 0.35579514825 0.43062200957 0.44470588235 0.49137931034
          0.43062200957 0.35579514825 0.16197183099 0 0 0.16101694915
          0.3538961039 0.42939481268 0.4447592068 0.49090909091 0.42939481268 0.3538961039
          0.16101694915 0 0 0 0 0
          0 0 0 0 0 0
          0 0.027906976744 0 0 0 0
          0 0 0.027906976744 0 0 0.056338028169
          0.072776280323 0.040669856459 0.014117647059 0.012931034483 0.040669856459 0.072776280323
          0.056338028169 0 0 0.06875 0.11483253589 0.10828025478
          0.0375782881 0.034416826004 0.10828025478 0.11483253589 0.06875 0
          0 0.074303405573 0.16235294118 0.16910229645 0.12371134021 0.11257035647
          0.16910229645 0.16235294118 0.074303405573 0 0 0.084269662921
          0.20043103448 0.25812619503 0.33771106942 0.39242685026 0.25812619503 0.20043103448
          0.084269662921 0 0 0.09375 0.25358851675 0.36093418259
          0.41962421712 0.46845124283 0.36093418259 0.25358851675 0.09375 0
          0 0.10563380282 0.3153638814 0.4019138756 0.44470588235 0.49137931034
          0.4019138756 0.3153638814 0.10563380282 0 0 0.16744186047
          0.36971830986 0.440625 0.44582043344 0.49719101124 0.440625 0.36971830986
          0.16744186047 0 0.006711409396 0.16759776536 0.3686440678 0.43984962406
          0.44609665428 0.49662162162 0.43984962406 0.3686440678 0.17318435754 0.006711409396
          0 0 0 0 0 0
          0 0 0 0 0 0.027932960894
          0 0 0 0 0 0
          0.027932960894 0 0 0.055084745763 0.071428571429 0.040345821326
          0.014164305949 0.012987012987 0.040345821326 0.071428571429 0.055084745763 0
          0 0.067669172932 0.11239193084 0.1074168798 0.037688442211 0.034562211982
          0.1074168798 0.11239193084 0.067669172932 0 0 0.074349442379
          0.16147308782 0.16834170854 0.12376237624 0.11286681716 0.16834170854 0.16147308782
          0.074349442379 0 0 0.084459459459 0.2 0.25806451613
          0.33860045147 0.39211618257 0.25806451613 0.2 0.084459459459 0
          0 0.093984962406 0.25360230548 0.36061381074 0.41959798995 0.46774193548
          0.36061381074 0.25360230548 0.093984962406 0 0 0.10593220339
          0.31493506494 0.40057636888 0.4447592068 0.49090909091 0.40057636888 0.31493506494
          0.10593220339 0 0 0.16759776536 0.3686440678 0.43984962406
          0.44981412639 0.5 0.43984962406 0.3686440678 0.16759776536 0.006711409396
          0.016129032258 0.1744966443 0.36734693878 0.44343891403 0.45535714286 0.50406504065
          0.44343891403 0.36734693878 0.18120805369 0.024193548387
        </DataArray>
        <DataArray type="Float64" Name="Displacement" NumberOfComponents="3" format="ascii" RangeMin="0.84479793114" RangeMax="3.1838487808">
          -0.092794775213 2.8076378454 -0.26882565338 -0.18404183658 2.819898596 -0.17276193725
          -0.26589688211 2.8412695397 -0.068135015171 -0.3576964586 2.8581033093 0.039959232916
          -0.43672033182 2.8849981102 0.14417626701 -0.52506516794 2.9033589909 0.25232394003
          -0.61960961082 2.9181664002 0.36040794178 -0.70206602529 2.9403588919 0.4643062742
          -0.79075149764 2.9599799639 0.57763981023 -0.88103891696 2.9846985796 0.67248633779
          -0.10894001264 2.583477579 -0.25534885221 -0.19940024096 2.599781822 -0.14923318278
          -0.28899427267 2.6197273116 -0.042187191733 -0.3711671032 2.6440666348 0.062573952709
          -0.45980345822 2.6631981073 0.16986213603 -0.54723770571 2.6830270698 0.27740404278
          -0.63726612475 2.7022149906 0.38463132174 -0.72660994922 2.7204730788 0.49147134925
          -0.81136402486 2.7396715194 0.59879935739 -0.89777489631 2.7605607123 0.704096463
          -0.1314227523 2.362514114 -0.2292331247 -0.21724747767 2.3849651973 -0.12575734746
          -0.30438619733 2.4036048751 -0.019337749452 -0.39100214134 2.4239485794 0.088207706572
          -0.47908144898 2.4446725365 0.19464766108 -0.56826441943 2.4639729317 0.30202518224
          -0.65274763353 2.4832012325 0.40771428719 -0.74105631876 2.5048764634 0.51497818545
          -0.82893602233 2.5243659349 0.62086140951 -0.91917933256 2.5388426669 0.73046331513
          -0.14901387345 2.147624778 -0.20456136214 -0.23528902242 2.1647722246 -0.099757830897
          -0.32164140831 2.1853288472 0.0059849662498 -0.40892760629 2.2063088384 0.11143291295
          -0.49654599153 2.2270075129 0.21865829523 -0.58393483196 2.2474232721 0.32566880905
          -0.67227765161 2.2655427278 0.43222923562 -0.75803835041 2.2855896942 0.53924423451
          -0.84820313559 2.3047970768 0.64565481589 -0.93460127672 2.3268779614 0.75178172161
          -0.16653414069 1.9268910021 -0.18273757966 -0.25345846268 1.9469008589 -0.076831559531
          -0.34091720042 1.9669773197 0.030246499034 -0.42800024989 1.9875177688 0.13650577906
          -0.51635628347 2.0091320124 0.24290287698 -0.60335301309 2.0303372041 0.34973081837
          -0.68987237786 2.0467574277 0.45661125382 -0.77747895371 2.0670935569 0.56192036163
          -0.8642588923 2.0872394626 0.67156819521 -0.95210688758 2.1060957869 0.77734593402
          -0.18413492807 1.7092271963 -0.15840998417 -0.27126741066 1.7307202673 -0.049918286769
          -0.3585019682 1.7493973179 0.054728653847 -0.44515249833 1.7700478895 0.16068295575
          -0.52990229478 1.7893371389 0.2700489154 -0.61849091892 1.8087697054 0.37054687956
          -0.70696476455 1.8288280094 0.47973387087 -0.79561326369 1.8491558556 0.58680307295
          -0.88392209049 1.8696648065 0.69114670384 -0.96921603664 1.8886101558 0.80171658147
          -0.1994319416 1.490491585 -0.13797417171 -0.28974466904 1.5109773145 -0.025842741682
          -0.37554202965 1.5310196515 0.079804526887 -0.46420673913 1.553085134 0.18445221088
          -0.55259842523 1.5730340809 0.29141781263 -0.64012765607 1.5921156064 0.39590641672
          -0.72662909579 1.6127938221 0.50537179509 -0.81290061081 1.6300128083 0.60989141819
          -0.90291716632 1.6500365504 0.71589524489 -0.98365265497 1.6718808701 0.82711762173
          -0.22170696804 1.2716533732 -0.11012188458 -0.30809146077 1.2947910327 -0.0026330682352
          -0.39411473784 1.3138033486 0.10337903025 -0.48130373705 1.3327420756 0.20870985943
          -0.56937905805 1.3534168192 0.31366746565 -0.6558922738 1.3749994357 0.42204259268
          -0.74339644009 1.3935874622 0.52901151225 -0.83144712988 1.4136422785 0.63480605309
          -0.92002156686 1.434908853 0.74088001948 -1.0096688373 1.4522202832 0.848142703
          -0.2356482737 1.0520692208 -0.087039353122 -0.32347336252 1.0727864749 0.021998411356
          -0.41061845568 1.0948046373 0.13045399044 -0.49695403661 1.1145219161 0.23502323578
          -0.58525149412 1.1376881017 0.33992489149 -0.67524623661 1.1543765704 0.44726264982
          -0.76061312795 1.1725634963 0.55012481162 -0.8494158264 1.1937042625 0.65581312979
          -0.93635513785 1.2145869316 0.76355412119 -1.023726069 1.2360763767 0.87325519778
          -0.25923056969 0.83357233044 -0.052799950224 -0.34945796135 0.8672232911 0.050751579237
          -0.43110035115 0.87869434628 0.15327433763 -0.51616001731 0.89399534365 0.25669673647
          -0.59847676327 0.90137869238 0.36000530317 -0.68947397181 0.93191959683 0.46673711632
          -0.77760865077 0.95744518558 0.57717693464 -0.86864103598 0.97891869713 0.68315869236
          -0.96419156761 1.0005723118 0.78566980167 -1.0296800103 1.0188144934 0.90516601505
          0.013194348459 2.7766793316 -0.41354735254 -0.076318640783 2.792623519 -0.30666826944
          -0.16321220835 2.8174690627 -0.1970112866 -0.24867618989 2.8361589662 -0.090860906611
          -0.33695611399 2.8560927116 0.015443687168 -0.4254960844 2.8770989605 0.12344897464
          -0.51078660299 2.8984097263 0.22925759775 -0.59919623678 2.9185068722 0.33497298482
          -0.68534268185 2.9350161737 0.44677040158 -0.77349577519 2.9543765786 0.55207857499
          -0.0056776918744 2.5581328073 -0.38760664125 -0.094045516476 2.5784337621 -0.28011630872
          -0.18014570429 2.599076403 -0.17314769184 -0.26625843984 2.6190267665 -0.065655299329
          -0.35390977254 2.6399715682 0.039732259148 -0.44059047492 2.65965929 0.14701103466
          -0.52764074373 2.6770368466 0.25156912049 -0.61678837445 2.6992936093 0.36044588003
          -0.70566080506 2.7183503791 0.46789491462 -0.79082871284 2.7378449598 0.57506807079
          -0.02401132407 2.3410799536 -0.36171402029 -0.10984373476 2.3615228532 -0.25602478801
          -0.1976770418 2.3802416396 -0.14869673575 -0.28491965982 2.4019679531 -0.042374105498
          -0.37225891134 2.4215903718 0.063635004008 -0.45950043002 2.4415572343 0.17071086348
          -0.54702299078 2.4616934596 0.27738902125 -0.63431550811 2.480035427 0.38391887111
          -0.72105713005 2.5012355514 0.49079995043 -0.80775779762 2.5211854164 0.59786305565
          -0.040464647166 2.1226336468 -0.33888374609 -0.12826843589 2.1426373592 -0.2319467878
          -0.2161996119 2.16349384 -0.12605851573 -0.30326363551 2.182707399 -0.018190385718
          -0.38968200857 2.2037812249 0.088296584765 -0.47723956625 2.2236262955 0.19506098281
          -0.56530795944 2.2430194265 0.30189608692 -0.65181830793 2.2640566974 0.40835249043
          -0.73919075164 2.2829010241 0.51504406858 -0.82482270907 2.3028256285 0.62255415457
          -0.059639061601 1.9062094096 -0.31260095052 -0.14633450353 1.9248960664 -0.20720594443
          -0.23329018538 1.9456437302 -0.10089884591 -0.32079029841 1.9650665762 0.0056775559711
          -0.40741589378 1.9853030861 0.11245247331 -0.4955208635 2.0055638054 0.21904087235
          -0.58243598038 2.0244898517 0.32626587175 -0.66984746716 2.0460201036 0.4315438063
          -0.75727335694 2.065191127 0.53882574116 -0.84630527783 2.0860829229 0.64395460199
          -0.077301629797 1.6875937686 -0.28907654838 -0.16498757075 1.7064313701 -0.18229015053
          -0.25165383607 1.7272984842 -0.075784737829 -0.33831991289 1.7471168091 0.030074381554
          -0.42576555332 1.7689974857 0.13615822833 -0.5131778438 1.7893814933 0.24280508335
          -0.60034312806 1.8068032387 0.34950143772 -0.68822145246 1.8266932054 0.4562574012
          -0.77512373155 1.8468220524 0.56261736328 -0.86355449523 1.8669452518 0.6688300791
          -0.094549792415 1.4681176047 -0.26468198434 -0.18138263821 1.4898867674 -0.15923711073
          -0.2692237578 1.5103468595 -0.050227439465 -0.35712715472 1.5298122245 0.053901674753
          -0.44177687213 1.5494389938 0.16181317799 -0.53015699859 1.5692377033 0.26562695234
          -0.61905370248 1.5895522793 0.37426567264 -0.70617584988 1.6102809588 0.47887955893
          -0.79361631514 1.6289405928 0.58694379016 -0.88193174729 1.648808847 0.69268083365
          -0.11359244687 1.2511863369 -0.24017982666 -0.20038349201 1.2704890656 -0.13364481637
          -0.28623420062 1.2898259685 -0.027716398863 -0.37377683292 1.3112952787 0.078544740908
          -0.46177428461 1.3317521672 0.1860083131 -0.54938108711 1.3519220925 0.28929537883
          -0.63620731869 1.3715990359 0.39712056817 -0.7239688753 1.3904256054 0.50362183392
          -0.8111287219 1.4103665728 0.61058361265 -0.90004269892 1.4296973407 0.71583314081
          -0.13340311424 1.0327594047 -0.21268069735 -0.21876684993 1.0537268431 -0.11115496613
          -0.30512565205 1.0723383188 -0.0044070741587 -0.39131612198 1.0926668893 0.10327747829
          -0.48013043583 1.1138768642 0.209935497 -0.56803036737 1.1336578793 0.31353304126
          -0.65492557241 1.1524353253 0.42095216205 -0.74092701251 1.1729588338 0.52887322807
          -0.82949739036 1.1933326735 0.63518627112 -0.92145767384 1.2114368265 0.73912876933
          -0.14601047922 0.81086197257 -0.18672799967 -0.23497080303 0.83189477818 -0.085726801713
          -0.3219348806 0.85654591563 0.023236524669 -0.41138094501 0.87768642238 0.12855951065
          -0.49848709792 0.89320289741 0.2322324651 -0.58438336815 0.91473310147 0.33987802915
          -0.67413365714 0.93693718738 0.44338375542 -0.76131899574 0.95520808357 0.54828813813
          -0.84635032899 0.97218996569 0.65683094537 -0.93467217384 0.99235813325 0.76576414664
          0.12273098817 2.7555604691 -0.54140418992 0.032684212695 2.7740430698 -0.43524905908
          -0.055905269852 2.7943460119 -0.32722902859 -0.14273139873 2.8143658153 -0.22122899409
          -0.22851557301 2.8362849768 -0.11555717006 -0.31573690358 2.8566270553 -0.0079467018145
          -0.40491472873 2.8746733456 0.099189013847 -0.49280034632 2.8951985841 0.20560690964
          -0.57852055417 2.9142453663 0.31242859566 -0.66194439998 2.9338512677 0.41944008282
          0.1005315011 2.5359372192 -0.51654456711 0.013865636445 2.5556140817 -0.41100003501
          -0.072951637542 2.5763910892 -0.30408710431 -0.16012151194 2.5971835009 -0.19643279112
          -0.24708273258 2.6169935139 -0.090792188939 -0.33470540327 2.6373019687 0.015537906021
          -0.4223268973 2.6567984089 0.1221536353 -0.50980287717 2.6769781141 0.22965601752
          -0.59648070785 2.6961739559 0.33655640664 -0.68626014407 2.715948842 0.4427181032
          0.085675132692 2.3175108471 -0.49374354343 -0.0033080051528 2.3378747366 -0.38639906978
          -0.090467198997 2.3583067726 -0.27960902113 -0.17829585166 2.3786159244 -0.17353197575
          -0.26518547753 2.3993611183 -0.066579980577 -0.35316796516 2.4194115432 0.03954112933
          -0.4397031742 2.4393813401 0.14673836667 -0.52687534367 2.4589426102 0.25333356447
          -0.61439148297 2.4789884137 0.36072892307 -0.70116485854 2.4987729961 0.46778360425
          0.068644743684 2.0997600538 -0.46901526819 -0.021989538796 2.1208976355 -0.36362214936
          -0.10848281037 2.1400526466 -0.25563911563 -0.19583154059 2.160599758 -0.14874029241
          -0.28274340316 2.1813497081 -0.042721644793 -0.37014857577 2.2013498222 0.064001708322
          -0.4578386433 2.2205735587 0.17037574757 -0.54487510357 2.2405367926 0.27734808027
          -0.63227351839 2.2601090428 0.38430575402 -0.71831777265 2.2798497185 0.48933524216
          0.048754059001 1.8822008067 -0.4450322795 -0.039796005976 1.902520102 -0.33827074183
          -0.12601771368 1.9228772707 -0.23140023312 -0.21339584706 1.942359752 -0.12455936694
          -0.30069697705 1.9636055697 -0.018818323423 -0.38811600447 1.9829489709 0.087864429221
          -0.47572786172 2.002249739 0.19401536561 -0.56289963961 2.0224659433 0.30096861313
          -0.65100188114 2.0430049462 0.40859296315 -0.73750232738 2.0627865938 0.51409035508
          0.030929740514 1.6646679984 -0.42066706546 -0.056945127674 1.6844148964 -0.31446556711
          -0.14391488921 1.704136014 -0.20750638072 -0.23117259224 1.7245075624 -0.10072706765
          -0.31840973734 1.7451226106 0.0060529159148 -0.40623306971 1.7647500731 0.11180309596
          -0.49338336893 1.784482957 0.21859023743 -0.58034868646 1.8043896499 0.32541275818
          -0.66768385302 1.825156802 0.43228595629 -0.75544155498 1.8442272267 0.53781011954
          0.013117559273 1.4458385726 -0.39603572308 -0.07527379196 1.4665822269 -0.2892230867
          -0.16187406934 1.4868665995 -0.18263603712 -0.24903605582 1.5063492494 -0.076693482197
          -0.33590361317 1.5273001477 0.030254931644 -0.42406104075 1.5472266825 0.1349787169
          -0.51133261496 1.566156863 0.24217201789 -0.59921453366 1.5867028938 0.34832744103
          -0.68645922416 1.6065030133 0.45527756709 -0.77270510039 1.6259653391 0.56249000394
          -0.0053226606642 1.2278271298 -0.37227512331 -0.092380325464 1.24863014 -0.2659841924
          -0.17815359711 1.2693721381 -0.15894819685 -0.2669542647 1.2886912389 -0.052512707827
          -0.35341497835 1.3093152152 0.053960908448 -0.44157288782 1.3290035339 0.15879795963
          -0.52948271506 1.3487926972 0.26555806724 -0.61545383202 1.3696979697 0.37214427408
          -0.70372923965 1.388771586 0.48048812796 -0.79258707454 1.4086622907 0.58579854809
          -0.025790383447 1.0111760421 -0.34798692933 -0.11184502778 1.0307760427 -0.24028951907
          -0.19765235179 1.0511442266 -0.1340061282 -0.28482677103 1.0710472304 -0.027738171979
          -0.37095198321 1.0909523931 0.080847595761 -0.46003052367 1.1104301401 0.18079499073
          -0.54743270535 1.1312078591 0.28961203817 -0.63485060379 1.1510958244 0.39707273852
          -0.72329679642 1.1705469411 0.50337570097 -0.81053081371 1.1906502123 0.6109486478
          -0.041587095425 0.79070337938 -0.32199071079 -0.13067875529 0.81523540362 -0.21877360995
          -0.21577147197 0.83179412652 -0.11199111401 -0.30285984253 0.8533130319 -0.0025346610502
          -0.38749331788 0.87180747934 0.10463324834 -0.47633810946 0.89063328463 0.20549503425
          -0.56511407241 0.91312527496 0.31345057156 -0.65258614366 0.93306908663 0.42140797589
          -0.74175225776 0.95436224065 0.52864237166 -0.82992737393 0.97127457844 0.633054637
          0.22576890107 2.7297587208 -0.67372659031 0.14036848522 2.7524018019 -0.56624001831
          0.052401598923 2.7716003071 -0.45831306163 -0.035896716778 2.791815628 -0.35266654127
          -0.12237816954 2.8123321852 -0.24571598583 -0.20952366916 2.832151692 -0.13948303986
          -0.29631211892 2.8521439039 -0.031819425278 -0.38380563237 2.8722181095 0.074961268719
          -0.46944990097 2.8922743159 0.18019976495 -0.55650741529 2.9098747754 0.29173753616
          0.21074621353 2.5163293523 -0.64760854597 0.12140830296 2.5334651535 -0.54139862168
          0.034933053511 2.5547716364 -0.4359965951 -0.052332266313 2.5747276235 -0.32882655579
          -0.14022288803 2.5950318111 -0.22115694059 -0.22771584985 2.6147422038 -0.11459457455
          -0.31323321095 2.6347788409 -0.007223485297 -0.40189214377 2.6554599873 0.098509207397
          -0.48945060881 2.6741784875 0.20509485141 -0.57566225656 2.6965297136 0.30940164445
          0.19169074562 2.2954368571 -0.62284200249 0.1031706934 2.3163913169 -0.51795456686
          0.015968822366 2.3369010321 -0.41132562918 -0.070781851185 2.3569587944 -0.30424835778
          -0.15787750475 2.3771173204 -0.19742080334 -0.24508605054 2.3972360998 -0.090845027216
          -0.33289359171 2.4172387562 0.015758090586 -0.42085206739 2.4372211584 0.12239161896
          -0.50736306926 2.456747203 0.22939803301 -0.59421792016 2.4751821996 0.33473417681
          0.17269002918 2.0787291753 -0.59775645799 0.086103118907 2.0983721541 -0.49337270935
          -0.0016232652079 2.1184428808 -0.38679287239 -0.088699337802 2.1387692392 -0.28022144111
          -0.17596622486 2.1589751006 -0.17339912967 -0.26317827523 2.1789755759 -0.066854699801
          -0.35045959252 2.1987632491 0.039987985012 -0.43786695689 2.2186658479 0.14688056638
          -0.52471891766 2.2384109049 0.25337230224 -0.61314369522 2.258503856 0.35858905662
          0.15459485833 1.8600125849 -0.57635777456 0.067828230564 1.8804335778 -0.46884049069
          -0.019652074033 1.9004780003 -0.36225756383 -0.10662200747 1.9199979499 -0.25479244806
          -0.19384933131 1.9408671107 -0.14938155308 -0.28110047821 1.9612172902 -0.042711147941
          -0.36867555317 1.980288285 0.063610410784 -0.45624273549 2.000725272 0.17068826323
          -0.54296031063 2.0205921405 0.27718150885 -0.63094196163 2.0404629185 0.38393596631
          0.13635724705 1.6425713616 -0.55003123033 0.050185770295 1.6621490982 -0.44404945785
          -0.037277673701 1.6822958427 -0.33813285485 -0.12443245447 1.7023358179 -0.23125762406
          -0.21155670017 1.7223671973 -0.1252725962 -0.29949539193 1.7427882238 -0.018882054599
          -0.38710156887 1.7622870133 0.087147115499 -0.47431487236 1.7820355522 0.19397366421
          -0.56128491501 1.8023094508 0.30093322719 -0.64912002025 1.8223048427 0.40719952092
          0.11944361839 1.4234962353 -0.52652992972 0.032445192615 1.4433662689 -0.42058616662
          -0.055023199428 1.464030546 -0.3131311124 -0.14192645577 1.4845318997 -0.20768120051
          -0.22997037491 1.5037949865 -0.099338007253 -0.31705791602 1.5250760798 0.0055919852818
          -0.40421748455 1.5444950777 0.11221906648 -0.49217568296 1.564093931 0.21810685166
          -0.57864636844 1.5835364547 0.32530814932 -0.66667296566 1.6038587028 0.4311284082