<?xml version="1.0"?>
<VTKFile type="UnstructuredGrid" version="0.1" byte_order="LittleEndian" compressor="vtkZLibDataCompressor">
  <UnstructuredGrid>
    <FieldData>
      <DataArray type="Float64" Name="TIME" NumberOfTuples="1" format="ascii" RangeMin="0.96239635342" RangeMax="0.96239635342">
        0.96239635342
      </DataArray>
    </FieldData>
    <Piece NumberOfPoints="1000" NumberOfCells="0">
      <PointData>
        <DataArray type="Float64" Name="Damage" format="ascii" RangeMin="0" RangeMax="0.5081300813">
          0 0 0 0 0 0
          0 0 0 0 0 0.027932960894
          0 0 0 0 0 0
          0.027932960894 0 0 0.055084745763 0.071428571429 0.040345821326
          0.014164305949 0.012987012987 0.040345821326 0.071428571429 0.055084745763 0
          0 0.067669172932 0.11239193084 0.1074168798 0.037688442211 0.034562211982
          0.1074168798 0.11239193084 0.067669172932 0 0 0.074349442379
          0.16147308782 0.16834170854 0.12376237624 0.11286681716 0.16834170854 0.16147308782
          0.074349442379 0 0 0.084459459459 0.2 0.25806451613
          0.33860045147 0.39211618257 0.25806451613 0.2 0.084459459459 0
          0 0.093984962406 0.25360230548 0.36061381074 0.41959798995 0.46774193548
          0.36061381074 0.25360230548 0.093984962406 0 0 0.10593220339
          0.31493506494 0.40057636888 0.4447592068 0.49090909091 0.40057636888 0.31493506494
          0.10593220339 0 0 0.17318435754 0.3686440678 0.43984962406
          0.44981412639 0.5 0.43984962406 0.3686440678 0.17318435754 0
          0.016129032258 0.18791946309 0.36734693878 0.44343891403 0.46428571429 0.5081300813
          0.44343891403 0.36734693878 0.18791946309 0.008064516129 0 0
          0 0 0 0 0 0
          0 0 0 0.027906976744 0 0
          0 0 0 0 0.027906976744 0
          0 0.056338028169 0.072776280323 0.040669856459 0.014117647059 0.012931034483
          0.040669856459 0.072776280323 0.056338028169 0 0 0.06875
          0.11483253589 0.10828025478 0.0375782881 0.034416826004 0.10828025478 0.11483253589
          0.06875 0 0 0.074303405573 0.16235294118 0.16910229645
          0.12371134021 0.11257035647 0.16910229645 0.16235294118 0.074303405573 0
          0 0.084269662921 0.20043103448 0.25812619503 0.33771106942 0.39242685026
          0.25812619503 0.20043103448 0.084269662921 0 0 0.09375
          0.25358851675 0.36093418259 0.41962421712 0.46845124283 0.36093418259 0.25358851675
          0.09375 0 0 0.10563380282 0.3153638814 0.4019138756
          0.44470588235 0.49137931034 0.4019138756 0.3153638814 0.10563380282 0
          0 0.16744186047 0.36971830986 0.440625 0.44582043344 0.49719101124
          0.440625 0.36971830986 0.16744186047 0 0.013422818792 0.17877094972
          0.3686440678 0.44360902256 0.44981412639 0.5 0.43984962406 0.3686440678
          0.17877094972 0.006711409396 0 0 0 0
          0 0 0 0 0 0
          0 0.024647887324 0 0 0 0
          0 0 0.024647887324 0 0 0.051212938005
          0.06875 0.038817005545 0.012635379061 0.011666666667 0.038817005545 0.06875
          0.051212938005 0 0 0.064593301435 0.10905730129 0.10491803279
          0.036858974359 0.034023668639 0.10491803279 0.10905730129 0.064593301435 0
          0 0.070588235294 0.15523465704 0.16506410256 0.12283464567 0.11271676301
          0.16506410256 0.15523465704 0.070588235294 0 0 0.081896551724
          0.19333333333 0.25443786982 0.33959537572 0.38985313752 0.25443786982 0.19333333333
          0.081896551724 0 0 0.093301435407 0.24768946396 0.35573770492
          0.41987179487 0.46449704142 0.35573770492 0.24768946396 0.093301435407 0
          0 0.10781671159 0.30833333333 0.39556377079 0.4440433213 0.48666666667
          0.39556377079 0.30833333333 0.10781671159 0 0 0.16197183099
          0.35579514825 0.43062200957 0.44470588235 0.49137931034 0.43062200957 0.35579514825
          0.16197183099 0 0 0.16101694915 0.3538961039 0.42939481268
          0.4447592068 0.49090909091 0.42939481268 0.3538961039 0.16101694915 0
          0 0 0 0 0 0
          0 0 0 0 0 0.025
          0 0 0 0 0 0
          0.025 0 0 0.05023923445 0.068391866913 0.039344262295
          0.012820512821 0.011834319527 0.039344262295 0.068391866913 0.05023923445 0
          0 0.063694267516 0.10819672131 0.10465116279 0.036984352774 0.034120734908
          0.10465116279 0.10819672131 0.063694267516 0 0 0.070981210856
          0.15544871795 0.16500711238 0.12290502793 0.11282051282 0.16500711238 0.15544871795
          0.070981210856 0 0 0.082217973231 0.19378698225 0.25459317585
          0.33974358974 0.38981042654 0.25459317585 0.19378698225 0.082217973231 0
          0 0.093418259023 0.24918032787 0.35610465116 0.41963015647 0.46456692913
          0.35610465116 0.24918032787 0.093418259023 0 0 0.10765550239
          0.30868761553 0.39508196721 0.44391025641 0.48668639053 0.39508196721 0.30868761553
          0.10765550239 0 0 0.1625 0.35645933014 0.43099787686
          0.44467640919 0.4913957935 0.43099787686 0.35645933014 0.1625 0
          0 0.16165413534 0.35446685879 0.42966751918 0.44472361809 0.49078341014
          0.42966751918 0.35446685879 0.16165413534 0 0 0
          0 0 0 0 0 0
          0 0 0 0.02786377709 0 0
          0 0 0 0 0.02786377709 0
          0 0.054117647059 0.070397111913 0.040064102564 0.014173228346 0.013005780347
          0.040064102564 0.070397111913 0.054117647059 0 0 0.066805845511
          0.11057692308 0.106685633 0.037709497207 0.034615384615 0.106685633 0.11057692308
          0.066805845511 0 0 0.074226804124 0.16062992126 0.16759776536
          0.12362637363 0.11292346299 0.16759776536 0.16062992126 0.074226804124 0
          0 0.084427767355 0.19942196532 0.25769230769 0.33877038896 0.39145496536
          0.25769230769 0.19942196532 0.084427767355 0 0 0.093945720251
          0.25320512821 0.35988620199 0.41899441341 0.46666666667 0.35988620199 0.25320512821
          0.093945720251 0 0 0.10588235294 0.31407942238 0.39903846154
          0.44409448819 0.48988439306 0.39903846154 0.31407942238 0.10588235294 0
          0 0.16718266254 0.36705882353 0.43841336117 0.44536082474 0.49530956848
          0.43841336117 0.36705882353 0.16718266254 0 0 0.16728624535
          0.36543909348 0.43718592965 0.44554455446 0.49435665914 0.43718592965 0.36543909348
          0.16728624535 0 0 0 0 0
          0 0 0 0 0 0
          0 0.025280898876 0 0 0 0
          0 0 0.025280898876 0 0 0.049568965517
          0.066666666667 0.038461538462 0.013005780347 0.012016021362 0.038461538462 0.066666666667
          0.049568965517 0 0 0.06309751434 0.1050295858 0.10367454068
          0.037179487179 0.034360189573 0.10367454068 0.1050295858 0.06309751434 0
          0 0.071294559099 0.15462427746 0.1641025641 0.12296110414 0.11316397229
          0.1641025641 0.15462427746 0.071294559099 0 0 0.082616179002
          0.19359145527 0.25473933649 0.34064665127 0.38930481283 0.25473933649 0.19359145527
          0.082616179002 0 0 0.093690248566 0.24852071006 0.35564304462
          0.41923076923 0.46327014218 0.35564304462 0.24852071006 0.093690248566 0
          0 0.10775862069 0.30833333333 0.39349112426 0.4436416185 0.48598130841
          0.39349112426 0.30833333333 0.10775862069 0 0 0.16292134831
          0.35560344828 0.43021032505 0.44465290807 0.49053356282 0.43021032505 0.35560344828
          0.16292134831 0 0 0.16216216216 0.35324675325 0.42857142857
          0.44469525959 0.48962655602 0.42857142857 0.35324675325 0.16216216216 0
          0 0 0 0 0 0
          0 0 0 0 0 0.025
          0 0 0 0 0 0
          0.025 0 0 0.05023923445 0.068391866913 0.039344262295
          0.012820512821 0.011834319527 0.039344262295 0.068391866913 0.05023923445 0
          0 0.063694267516 0.10819672131 0.10465116279 0.036984352774 0.034120734908
          0.10465116279 0.10819672131 0.063694267516 0 0 0.070981210856
          0.15544871795 0.16500711238 0.12290502793 0.11282051282 0.16500711238 0.15544871795
          0.070981210856 0 0 0.082217973231 0.19378698225 0.25459317585
          0.33974358974 0.38981042654 0.25459317585 0.19378698225 0.082217973231 0
          0 0.093418259023 0.24918032787 0.35610465116 0.41963015647 0.46456692913
          0.35610465116 0.24918032787 0.093418259023 0 0 0.10765550239
          0.30868761553 0.39508196721 0.44391025641 0.48668639053 0.39508196721 0.30868761553
          0.10765550239 0 0 0.1625 0.35645933014 0.43099787686
          0.44467640919 0.4913957935 0.43099787686 0.35645933014 0.1625 0
          0 0.16165413534 0.35446685879 0.42966751918 0.44472361809 0.49078341014
          0.42966751918 0.35446685879 0.16165413534 0 0 0
          0 0 0 0 0 0
          0 0 0 0.024647887324 0 0
          0 0 0 0 0.024647887324 0
          0 0.051212938005 0.06875 0.038817005545 0.012635379061 0.011666666667
          0.038817005545 0.06875 0.051212938005 0 0 0.064593301435
          0.10905730129 0.10491803279 0.036858974359 0.034023668639 0.10491803279 0.10905730129
          0.064593301435 0 0 0.070588235294 0.15523465704 0.16506410256
          0.12283464567 0.11271676301 0.16506410256 0.15523465704 0.070588235294 0
          0 0.081896551724 0.19333333333 0.25443786982 0.33959537572 0.38985313752
          0.25443786982 0.19333333333 0.081896551724 0 0 0.093301435407
          0.24768946396 0.35573770492 0.41987179487 0.46449704142 0.35573770492 0.24768946396
          0.093301435407 0 0 0.10781671159 0.30833333333 0.39556377079
          0.4440433213 0.48666666667 0.39556377079 0.30833333333 0.10781671159 0
          0 0.16197183099 0.35579514825 0.43062200957 0.44470588235 0.49137931034
          0.43062200957 0.35579514825 0.16197183099 0 0 0.16101694915
          0.3538961039 0.42939481268 0.4447592068 0.49090909091 0.42939481268 0.3538961039
          0.16101694915 0 0 0 0 0
          0 0 0 0 0 0
          0 0.027906976744 0 0 0 0
          0 0 0.027906976744 0 0 0.056338028169
          0.072776280323 0.040669856459 0.014117647059 0.012931034483 0.040669856459 0.072776280323
          0.056338028169 0 0 0.06875 0.11483253589 0.10828025478
          0.0375782881 0.034416826004 0.10828025478 0.11483253589 0.06875 0
          0 0.074303405573 0.16235294118 0.16910229645 0.12371134021 0.11257035647
          0.16910229645 0.16235294118 0.074303405573 0 0 0.084269662921
          0.20043103448 0.25812619503 0.33771106942 0.39242685026 0.25812619503 0.20043103448
          0.084269662921 0 0 0.09375 0.25358851675 0.36093418259
          0.41962421712 0.46845124283 0.36093418259 0.25358851675 0.09375 0
          0 0.10563380282 0.3153638814 0.4019138756 0.44470588235 0.49137931034
          0.4019138756 0.3153638814 0.10563380282 0 0 0.16744186047
          0.36971830986 0.440625 0.44582043344 0.49719101124 0.440625 0.36971830986
          0.16744186047 0 0.006711409396 0.16759776536 0.3686440678 0.43984962406
          0.44609665428 0.49662162162 0.43984962406 0.3686440678 0.17318435754 0.006711409396
          0 0 0 0 0 0
          0 0 0 0 0 0.027932960894
          0 0 0 0 0 0
          0.027932960894 0 0 0.055084745763 0.071428571429 0.040345821326
          0.014164305949 0.012987012987 0.040345821326 0.071428571429 0.055084745763 0
          0 0.067669172932 0.11239193084 0.1074168798 0.037688442211 0.034562211982
          0.1074168798 0.11239193084 0.067669172932 0 0 0.074349442379
          0.16147308782 0.16834170854 0.12376237624 0.11286681716 0.16834170854 0.16147308782
          0.074349442379 0 0 0.084459459459 0.2 0.25806451613
          0.33860045147 0.39211618257 0.25806451613 0.2 0.084459459459 0
          0 0.093984962406 0.25360230548 0.36061381074 0.41959798995 0.46774193548
          0.36061381074 0.25360230548 0.093984962406 0 0 0.10593220339
          0.31493506494 0.40057636888 0.4447592068 0.49090909091 0.40057636888 0.31493506494
          0.10593220339 0 0 0.16759776536 0.3686440678 0.43984962406
          0.44981412639 0.5 0.43984962406 0.3686440678 0.16759776536 0.006711409396
          0.016129032258 0.1744966443 0.36734693878 0.44343891403 0.45535714286 0.50406504065
          0.44343891403 0.36734693878 0.18120805369 0.024193548387
        </DataArray>
        <DataArray type="Float64" Name="Displacement" NumberOfComponents="3" format="ascii" RangeMin="0.21101022602" RangeMax="1.9015720894">
          0.15796437002 1.2610111468 -0.5301256364 0.094398935314 1.322807092 -0.45901152345
          0.033326845273 1.3904313211 -0.38788497665 -0.020688579075 1.460081333 -0.31729933735
          -0.075887775012 1.5261644899 -0.25057765657 -0.14258182896 1.5959273689 -0.17435840835
          -0.19412761594 1.6605185123 -0.10668151786 -0.25379151886 1.7300892635 -0.030282973817
          -0.31139324423 1.796673963 0.033066101148 -0.36665323843 1.8633057948 0.09814952297
          0.087764239497 1.1072731472 -0.44876750766 0.030972152638 1.1792491098 -0.37737050759
          -0.028026519054 1.2468802905 -0.30517908648 -0.088505977486 1.3134169053 -0.23366442446
          -0.14705586517 1.3808295892 -0.16260982886 -0.20417213886 1.4489247305 -0.093304614004
          -0.26505324668 1.5161691819 -0.021783580015 -0.32156870088 1.5843826148 0.048289989091
          -0.37816970664 1.6516201515 0.11698812312 -0.43699331547 1.7186133584 0.19330294286
          0.024337655553 0.95728855342 -0.3653850242 -0.034409999375 1.0308764163 -0.29446832762
          -0.092594929 1.0987513904 -0.22276676111 -0.151998854 1.1667227185 -0.15206991544
          -0.20942289853 1.2332176451 -0.081981533303 -0.26993206126 1.3010613953 -0.01037369562
          -0.32758389445 1.369111944 0.059603490199 -0.38581116079 1.4361770539 0.12974975588
          -0.44376631163 1.5046318316 0.20076382901 -0.49943741919 1.5715723077 0.27116457062
          -0.04060146545 0.81245459225 -0.28287742945 -0.098503075457 0.88342224572 -0.21078557814
          -0.15755771979 0.95114545882 -0.14122789927 -0.21653831011 1.0195039576 -0.069146726365
          -0.27604254832 1.0873820691 0.0018100315475 -0.33375671372 1.1539079014 0.072217610256
          -0.39238797469 1.2215846096 0.14332659899 -0.44928052393 1.2902026025 0.21254717332
          -0.50824494474 1.3569768051 0.28314424054 -0.56534990154 1.4257205589 0.3546219237
          -0.10593945893 0.66629769092 -0.20251166793 -0.16452264916 0.73787563368 -0.12872582184
          -0.22293497621 0.80460309519 -0.058783928013 -0.28245861128 0.87147906314 0.011221120011
          -0.34067760646 0.94025970597 0.083023616818 -0.39862771721 1.0070329392 0.15528142265
          -0.45572210133 1.0765288414 0.22565233199 -0.51478598038 1.1440367654 0.29528922272
          -0.57478573248 1.2109696726 0.36502222831 -0.63135924554 1.2801455811 0.43532033764
          -0.17262253961 0.52222948674 -0.11625560649 -0.2307466859 0.59179539228 -0.045335523902
          -0.28855743525 0.6579824462 0.024510551129 -0.34668555587 0.72637536503 0.096232799345
          -0.40536990442 0.79319835157 0.16573498369 -0.46338037315 0.85979251734 0.23771570703
          -0.52239714216 0.92840537208 0.30785145463 -0.58023303565 0.99740014867 0.37862438006
          -0.64053264759 1.065027345 0.44773972881 -0.70073813341 1.1332646318 0.51692243828
          -0.23719873887 0.37425050494 -0.033239068786 -0.2955179186 0.44567919791 0.037205505083
          -0.35363752672 0.51124459132 0.10816536047 -0.41373683285 0.57817682075 0.1765554049
          -0.47161057475 0.64586228406 0.2483845463 -0.5283284387 0.71409448166 0.32164299993
          -0.58632577742 0.78418844819 0.39188650121 -0.64634606826 0.85057994468 0.46105104351
          -0.70465375488 0.91784085881 0.53076124192 -0.75874494226 0.98610931223 0.60416305675
          -0.30245342114 0.22490723598 0.046026168183 -0.36036940026 0.29658544917 0.11784331547
          -0.4190926977 0.36455010013 0.18964879223 -0.47536365182 0.43262599161 0.26290706398
          -0.53630729769 0.49852186037 0.33366480763 -0.59463349919 0.56783887261 0.40581410834
          -0.65281080687 0.63194526326 0.47279524347 -0.7101499839 0.70441960081 0.54394227599
          -0.76720445336 0.77310716879 0.61523203785 -0.8219384693 0.84119563673 0.68786805213
          -0.36788011656 0.086559581671 0.12737269995 -0.42614674035 0.15110274684 0.20445642258
          -0.48423144967 0.21944135119 0.27295607487 -0.54027044647 0.28906693234 0.34544524242
          -0.59924581848 0.3519162314 0.41506672878 -0.65735557939 0.42132927186 0.48710301149
          -0.71790663669 0.48982627363 0.55647986738 -0.77358917674 0.55793380897 0.6300429205
          -0.8335497744 0.62627536385 0.69850172318 -0.88860648314 0.69629905299 0.76817910875
          -0.43102999186 -0.064915302906 0.21890146859 -0.49041966284 0.014906157457 0.28113688991
          -0.54890705445 0.072734629051 0.35174765872 -0.60930766202 0.13747189703 0.42473807772
          -0.66942548896 0.19236727032 0.50161973197 -0.72177155635 0.27660031234 0.58396224637
          -0.77761735373 0.34696034086 0.64611907838 -0.83898036684 0.41503615786 0.70982957482
          -0.90087370579 0.48350884216 0.77552251077 -0.95384864428 0.54452635974 0.85753130493
          0.23150680572 1.1750700473 -0.61792345309 0.1738527308 1.2454825417 -0.54848342291
          0.10819002759 1.3117873447 -0.47582107379 0.053524219232 1.3796805019 -0.40566768203
          -0.0056001166445 1.446422414 -0.33524800822 -0.066081597977 1.5144188875 -0.26443749426
          -0.12082267073 1.5810815364 -0.19412834572 -0.18452390246 1.6499081104 -0.12305285877
          -0.23817807859 1.7150462706 -0.056887308256 -0.29978803347 1.7847795837 0.015883844268
          0.16316956144 1.0287811197 -0.53577337125 0.10239525605 1.0961833038 -0.46423273424
          0.045138166756 1.1648937807 -0.39338470041 -0.013899991345 1.2327279614 -0.32227750572
          -0.072403862872 1.3000069454 -0.25190943043 -0.13173959743 1.3683090501 -0.1808633683
          -0.18988616152 1.4353988083 -0.11103613607 -0.24787064002 1.5038067925 -0.04089032907
          -0.30588029623 1.5705662718 0.031724595019 -0.36213303744 1.637820708 0.10022260478
          0.098376633762 0.88145867274 -0.45347672975 0.039020097813 0.94935353889 -0.38251276427
          -0.019382894068 1.0179818341 -0.31110318712 -0.07819532294 1.0853751385 -0.24086438526
          -0.13741790858 1.1533259831 -0.16996086672 -0.19528820083 1.2208769568 -0.099012052277
          -0.25376436867 1.2888627297 -0.029109858485 -0.31216189391 1.355529562 0.041821700117
          -0.37012568752 1.4236722773 0.11230085041 -0.42726161693 1.4904526341 0.18377374034
          0.031657369776 0.73630859493 -0.37053038202 -0.026058389777 0.80378679398 -0.29971701879
          -0.085468336606 0.87157200543 -0.22903822156 -0.14403844841 0.93917939159 -0.15800941902
          -0.2020406726 1.0063689507 -0.087095693595 -0.260601637 1.0739933893 -0.016186276066
          -0.31928461987 1.142512292 0.054207872435 -0.37780758569 1.2094020221 0.12448330052
          -0.43516852236 1.2765559217 0.19463314114 -0.4957411924 1.3455726447 0.26526492446
          -0.033268975938 0.5889338807 -0.28830699422 -0.091526647154 0.65680790168 -0.21746351502
          -0.15038239785 0.7247997664 -0.14608662535 -0.20921718008 0.7915872827 -0.075327958529
          -0.26720035189 0.85915287225 -0.0042111250031 -0.32535213299 0.92694570074 0.066413846019
          -0.38422479535 0.9950230263 0.13752863076 -0.44279070616 1.0625667167 0.2069784812
          -0.50085594262 1.1303745108 0.27761703407 -0.5592570754 1.1993141736 0.34722804403
          -0.098558977383 0.44003499245 -0.20547929324 -0.1566543386 0.50961926172 -0.13452533659
          -0.21630062338 0.57758675585 -0.064004035036 -0.27411781166 0.64451396506 0.0069083000991
          -0.33278289608 0.71317129285 0.07723671001 -0.39066566732 0.78079270484 0.14925801106
          -0.44895667581 0.8483013932 0.22032127693 -0.50815140976 0.91637726087 0.2905193499
          -0.56524525389 0.9843569511 0.36011408819 -0.62187616586 1.0524149443 0.43275311881
          -0.16442642011 0.29554497991 -0.12213533149 -0.22278429594 0.36402794047 -0.052396019916
          -0.28084763891 0.42990800955 0.017790413693 -0.33930304542 0.49744306795 0.09000111923
          -0.39831290585 0.56538464811 0.1603016436 -0.45612974866 0.6340962206 0.23378851792
          -0.51362382193 0.70093790283 0.30325365203 -0.57034676236 0.77101433124 0.37370825712
          -0.63068104596 0.83850657308 0.44325844253 -0.68818047225 0.90641559699 0.51474445481
          -0.22958958629 0.14872159269 -0.03977821868 -0.28747502164 0.21648601065 0.030695696434
          -0.34613638649 0.28405061299 0.10157690752 -0.40374783221 0.35177859749 0.17212300404
          -0.46180675882 0.41951180298 0.24381313068 -0.52083944294 0.48724725881 0.31582834084
          -0.57907830418 0.55559932685 0.38547622248 -0.63686830002 0.62385599193 0.45637299411
          -0.69476014331 0.69197277255 0.52646989115 -0.75262548749 0.76095535056 0.59704038921
          -0.29416664836 0.00094001185059 0.042826851058 -0.35248525442 0.069072140924 0.11289698793
          -0.41067785569 0.13689938151 0.18430006473 -0.46982858962 0.20384744818 0.25512148861
          -0.52752479442 0.27137256595 0.32594102224 -0.58568396988 0.34219448885 0.40079725509
          -0.64325960573 0.4111344798 0.47141551 -0.70032069475 0.47794799183 0.53995127436
          -0.75847918834 0.54655374427 0.61002270275 -0.8152612739 0.61257698046 0.68149313316
          -0.35831255452 -0.14329202218 0.12404665971 -0.41746346615 -0.076675046927 0.19262380741
          -0.47578140673 -0.011341959292 0.26425966857 -0.53368310085 0.057423784842 0.33866753799
          -0.59113852521 0.12612718367 0.40974086262 -0.6506885775 0.19776083176 0.48404533634
          -0.70772589519 0.26129898766 0.55296506232 -0.76371591957 0.33146200209 0.62514315702
          -0.81989711125 0.40415595931 0.69258944969 -0.87962028054 0.46653385172 0.76366969299
          0.30328354355 1.1006960595 -0.70641791099 0.24314225721 1.164480369 -0.63506341902
          0.18218172294 1.2328145143 -0.56486206195 0.12393186593 1.2992553678 -0.49338819497
          0.066314507204 1.3661445566 -0.42335389097 0.0068692637867 1.4339876369 -0.35206543652
          -0.052511066854 1.5020237031 -0.28142855764 -0.11115266521 1.5697491718 -0.21153781618
          -0.16655323157 1.6349842276 -0.14390302349 -0.23090241742 1.7055933476 -0.075810137042
          0.23602051896 0.94913276371 -0.62314175257 0.17669544194 1.0161496309 -0.55299529707
          0.11818927523 1.0843254665 -0.48254502043 0.05902955281 1.1522548493 -0.41112994447
          0.00099014899654 1.2192732991 -0.3413672522 -0.057633073281 1.2870938439 -0.27039186884
          -0.11631235226 1.3546163162 -0.19916613381 -0.17419292325 1.4223464784 -0.12920810388
          -0.23273995823 1.4901707368 -0.058010642223 -0.29128186357 1.5572647192 0.012677429332
          0.17136653162 0.80292167922 -0.54140570823 0.11213506118 0.86998621887 -0.47114763355
          0.052750914582 0.93787587869 -0.3995382405 -0.0053116020026 1.0044940831 -0.32928899937
          -0.064482567069 1.0727901934 -0.25794248789 -0.12311198911 1.1402520158 -0.18748023378
          -0.18057649644 1.2079156481 -0.11698952391 -0.2397217941 1.275795228 -0.046213202652
          -0.29723946909 1.3435575576 0.023497630032 -0.3558955791 1.4112293604 0.093428258869
          0.10411711611 0.65491220927 -0.45980676551 0.045405203359 0.72296920126 -0.38969108894
          -0.01261837715 0.79022084318 -0.31737745695 -0.070903637033 0.85830992029 -0.24622507908
          -0.12921410368 0.92580002834 -0.17542059278 -0.18797515467 0.99337969766 -0.10458878951
          -0.24642818646 1.0609189982 -0.034342902931 -0.304425177 1.128982442 0.03659206098
          -0.36229231515 1.1971409692 0.10717816095 -0.4199740006 1.2657015828 0.17804664674
          0.039451424441 0.50987587641 -0.37625063162 -0.018777105378 0.57611765886 -0.30569879671
          -0.077313320485 0.64353312072 -0.23477899179 -0.13583829447 0.71096457559 -0.16461417012
          -0.19449396631 0.77892325613 -0.093415898693 -0.2532705958 0.8461914739 -0.021763607185
          -0.31036302221 0.91506207203 0.048511896303 -0.36951392192 0.98196900347 0.11913286367
          -0.42737957938 1.0498297509 0.18929754218 -0.48688720141 1.1183723059 0.25904436608
          -0.025588612555 0.36187650414 -0.29384601783 -0.084243001252 0.42977016856 -0.22309065227
          -0.14285706477 0.49687272473 -0.15298794545 -0.20085988785 0.56411575364 -0.081288081817
          -0.25994348447 0.63201961807 -0.011129249794 -0.31746781029 0.70010743528 0.061587617228
          -0.37623827522 0.76808620554 0.13142454788 -0.43431141359 0.83603195785 0.20175914711
          -0.49278823902 0.90383468021 0.27180624505 -0.55066113684 0.97186287363 0.3428088473
          -0.09029570212 0.21433617657 -0.21192198963 -0.14920300144 0.28282160397 -0.13990880544
          -0.20767488678 0.34997852343 -0.069777997013 -0.26670009033 0.41736124242 0.00049493038317
          -0.32528523434 0.48477189527 0.070099162236 -0.3816081883 0.55457520534 0.14439548058
          -0.44074401601 0.62183942419 0.21472020182 -0.49854308375 0.68938428815 0.2852134935
          -0.55681022917 0.75702939068 0.35518407647 -0.61415521387 0.82519954909 0.42621645385
          -0.15569437103 0.068765467989 -0.1277118778 -0.21382018228 0.13560325139 -0.057301452692
          -0.27179205736 0.20222163038 0.012187432439 -0.3320102371 0.26969259217 0.083078025139
          -0.38911375843 0.33782595306 0.15497484298 -0.44733044106 0.40701571128 0.22784503462
          -0.50423204421 0.47643381935 0.29863580303 -0.56212459903 0.54291502056 0.36732688276
          -0.6221007119 0.61071886677 0.43787323651 -0.67986546583 0.67851066319 0.50815096009
          -0.22099374315 -0.078325722625 -0.046226670972 -0.27946560981 -0.011388107892 0.024920014938
          -0.33797739064 0.056467392357 0.094985159043 -0.39580453632 0.12449891729 0.16588712207
          -0.45435140702 0.19243166186 0.23698720232 -0.5126260648 0.26169167041 0.31060586289
          -0.57026538457 0.32933026783 0.38057813453 -0.6277257257 0.39753746379 0.4515051343
          -0.68576659783 0.46502954112 0.52164899691 -0.74457917584 0.53309987933 0.59104482435
          -0.28718607356 -0.22348407458 0.037913540395 -0.34408375268 -0.15794876241 0.10787533445
          -0.40077932205 -0.090260961893 0.1814792313 -0.45920423762 -0.02151728956 0.24951263579
          -0.52341196015 0.039870664745 0.31944941312 -0.57670531604 0.11855736075 0.40194343036
          -0.63491740408 0.18119140494 0.46310384784 -0.69223575903 0.24776032308 0.53559972265
          -0.74927225186 0.31931558423 0.60482115597 -0.80924345497 0.38644618177 0.67420475409
          0.37418591166 1.0156047123 -0.79456088383 0.31779452046 1.0855383367 -0.72309293283
          0.25737986535 1.1507356206 -0.65338514795 0.19870989665 1.2184991787 -0.58217284753
          0.13917056314 1.286093821 -0.51227027025 0.079583766035 1.3528938009 -0.4410340804
          0.021827924028 1.4203366595 -0.3718003709 -0.036857295405 1.4881605197 -0.30164780784
          -0.095526571335 1.5555297406 -0.2317396196 -0.15252968229 1.6217200928 -0.16312561296
          0.3072395509 0.86782154371 -0.71180701612 0.24931638094 0.93515395192 -0.64195581007
          0.19103642561 1.003633251 -0.57095472675 0.13280211418 1.0716385714 -0.50021280062
          0.07434512758 1.1392281103 -0.42944566558 0.015172417042 1.2068825164 -0.35828373978
          -0.042177400342 1.2741398877 -0.28743921357 -0.10077835119 1.3416541595 -0.21764331333
          -0.15938188811 1.4094812431 -0.14644076282 -0.21872420549 1.4769431528 -0.07522571324
          0.24192768368 0.72136855671 -0.62967820834 0.18458963087 0.78988094258 -0.55994055158
          0.1264355455 0.85641947106 -0.48922384671 0.067051658928 0.92447577348 -0.41722316049
          0.0086592239727 0.99207650565 -0.34666388556 -0.049673886566 1.0596514303 -0.27595518948
          -0.10807205981 1.1274466696 -0.20523792269 -0.16571580271 1.1953310038 -0.13462236716
          -0.22399182053 1.2633256465 -0.064918782638 -0.2828633229 1.3310082773 0.0076498756023
          0.17832903814 0.57513196619 -0.54740669388 0.11923479703 0.64234526688 -0.4771013958
          0.060671194937 0.71018269329 -0.40584147039 0.0021942053814 0.77762439603 -0.3349640854
          -0.05637011116 0.84530680903 -0.26379645268 -0.11478965663 0.91295909044 -0.19319207716
          -0.17315666167 0.9805995695 -0.12248895152 -0.23180099652 1.0482664269 -0.052373691593
          -0.28967166487 1.1163455469 0.018362048514 -0.34727065751 1.1838974612 0.088892617858
          0.11292295523 0.42715080967 -0.46400840312 0.054013898041 0.49598789588 -0.39386998614
          -0.0044266546411 0.56323424155 -0.32331512122 -0.062800739674 0.63106256221 -0.25136104796
          -0.12132702729 0.69849613898 -0.18127207069 -0.17999395487 0.76600779514 -0.1104848311
          -0.23850051971 0.83348604737 -0.039945833977 -0.29659020005 0.90173840555 0.030381127741
          -0.35483005448 0.96920739434 0.10106223013 -0.41301396042 1.0361627061 0.17236675388
          0.047667411505 0.28131508949 -0.38211982046 -0.010859455878 0.34860385764 -0.31105801646
          -0.069390397952 0.41646379418 -0.2405218937 -0.12792494803 0.48403458079 -0.16966231765
          -0.18673952961 0.55150025492 -0.099444669151 -0.24477937551 0.61981567452 -0.02752679161
          -0.303322474 0.68686751095 0.042814691764 -0.36146420941 0.75484457558 0.11318538964
          -0.41919810878 0.82250240318 0.1840358797 -0.47668953016 0.89077558659 0.25483312319
          -0.017448081441 0.13441586022 -0.30005703938 -0.076492187338 0.20093966513 -0.22912500702
          -0.13426898424 0.26992405319 -0.15752703874 -0.19350826676 0.33654373996 -0.087294379717
          -0.25225029538 0.40514629737 -0.016195560849 -0.30958232173 0.47339244172 0.055758375674