<?xml version="1.0"?>
<VTKFile type="UnstructuredGrid" version="0.1" byte_order="LittleEndian" compressor="vtkZLibDataCompressor">
  <UnstructuredGrid>
    <FieldData>
      <DataArray type="Float64" Name="TIME" NumberOfTuples="1" format="ascii" RangeMin="0.21056886973" RangeMax="0.21056886973">
        0.21056886973
      </DataArray>
    </FieldData>
    <Piece NumberOfPoints="1000" NumberOfCells="0">
      <PointData>
        <DataArray type="Float64" Name="Damage" format="ascii" RangeMin="0" RangeMax="0.49719101124">
          0 0 0 0 0 0
          0 0 0 0 0 0.027932960894
          0 0 0 0 0 0
          0.027932960894 0 0 0.055084745763 0.071428571429 0.040345821326
          0.014164305949 0.012987012987 0.040345821326 0.071428571429 0.055084745763 0
          0 0.067669172932 0.11239193084 0.1074168798 0.037688442211 0.034562211982
          0.1074168798 0.11239193084 0.067669172932 0 0 0.074349442379
          0.16147308782 0.16834170854 0.12376237624 0.11286681716 0.16834170854 0.16147308782
          0.074349442379 0 0 0.084459459459 0.2 0.25806451613
          0.33860045147 0.39211618257 0.25806451613 0.2 0.084459459459 0
          0 0.093984962406 0.25360230548 0.36061381074 0.41959798995 0.46774193548
          0.36061381074 0.25360230548 0.093984962406 0 0 0.10593220339
          0.31493506494 0.40057636888 0.4447592068 0.49090909091 0.40057636888 0.31493506494
          0.10593220339 0 0 0.16759776536 0.3686440678 0.43984962406
          0.44609665428 0.49662162162 0.43984962406 0.3686440678 0.16759776536 0
          0 0.1677852349 0.36734693878 0.43891402715 0.44642857143 0.49593495935
          0.43891402715 0.36734693878 0.1677852349 0 0 0
          0 0 0 0 0 0
          0 0 0 0.027906976744 0 0
          0 0 0 0 0.027906976744 0
          0 0.056338028169 0.072776280323 0.040669856459 0.014117647059 0.012931034483
          0.040669856459 0.072776280323 0.056338028169 0 0 0.06875
          0.11483253589 0.10828025478 0.0375782881 0.034416826004 0.10828025478 0.11483253589
          0.06875 0 0 0.074303405573 0.16235294118 0.16910229645
          0.12371134021 0.11257035647 0.16910229645 0.16235294118 0.074303405573 0
          0 0.084269662921 0.20043103448 0.25812619503 0.33771106942 0.39242685026
          0.25812619503 0.20043103448 0.084269662921 0 0 0.09375
          0.25358851675 0.36093418259 0.41962421712 0.46845124283 0.36093418259 0.25358851675
          0.09375 0 0 0.10563380282 0.3153638814 0.4019138756
          0.44470588235 0.49137931034 0.4019138756 0.3153638814 0.10563380282 0
          0 0.16744186047 0.36971830986 0.440625 0.44582043344 0.49719101124
          0.440625 0.36971830986 0.16744186047 0 0 0.16759776536
          0.3686440678 0.43984962406 0.44609665428 0.49662162162 0.43984962406 0.3686440678
          0.16759776536 0 0 0 0 0
          0 0 0 0 0 0
          0 0.024647887324 0 0 0 0
          0 0 0.024647887324 0 0 0.051212938005
          0.06875 0.038817005545 0.012635379061 0.011666666667 0.038817005545 0.06875
          0.051212938005 0 0 0.064593301435 0.10905730129 0.10491803279
          0.036858974359 0.034023668639 0.10491803279 0.10905730129 0.064593301435 0
          0 0.070588235294 0.15523465704 0.16506410256 0.12283464567 0.11271676301
          0.16506410256 0.15523465704 0.070588235294 0 0 0.081896551724
          0.19333333333 0.25443786982 0.33959537572 0.38985313752 0.25443786982 0.19333333333
          0.081896551724 0 0 0.093301435407 0.24768946396 0.35573770492
          0.41987179487 0.46449704142 0.35573770492 0.24768946396 0.093301435407 0
          0 0.10781671159 0.30833333333 0.39556377079 0.4440433213 0.48666666667
          0.39556377079 0.30833333333 0.10781671159 0 0 0.16197183099
          0.35579514825 0.43062200957 0.44470588235 0.49137931034 0.43062200957 0.35579514825
          0.16197183099 0 0 0.16101694915 0.3538961039 0.42939481268
          0.4447592068 0.49090909091 0.42939481268 0.3538961039 0.16101694915 0
          0 0 0 0 0 0
          0 0 0 0 0 0.025
          0 0 0 0 0 0
          0.025 0 0 0.05023923445 0.068391866913 0.039344262295
          0.012820512821 0.011834319527 0.039344262295 0.068391866913 0.05023923445 0
          0 0.063694267516 0.10819672131 0.10465116279 0.036984352774 0.034120734908
          0.10465116279 0.10819672131 0.063694267516 0 0 0.070981210856
          0.15544871795 0.16500711238 0.12290502793 0.11282051282 0.16500711238 0.15544871795
          0.070981210856 0 0 0.082217973231 0.19378698225 0.25459317585
          0.33974358974 0.38981042654 0.25459317585 0.19378698225 0.082217973231 0
          0 0.093418259023 0.24918032787 0.35610465116 0.41963015647 0.46456692913
          0.35610465116 0.24918032787 0.093418259023 0 0 0.10765550239
          0.30868761553 0.39508196721 0.44391025641 0.48668639053 0.39508196721 0.30868761553
          0.10765550239 0 0 0.1625 0.35645933014 0.43099787686
          0.44467640919 0.4913957935 0.43099787686 0.35645933014 0.1625 0
          0 0.16165413534 0.35446685879 0.42966751918 0.44472361809 0.49078341014
          0.42966751918 0.35446685879 0.16165413534 0 0 0
          0 0 0 0 0 0
          0 0 0 0.02786377709 0 0
          0 0 0 0 0.02786377709 0
          0 0.054117647059 0.070397111913 0.040064102564 0.014173228346 0.013005780347
          0.040064102564 0.070397111913 0.054117647059 0 0 0.066805845511
          0.11057692308 0.106685633 0.037709497207 0.034615384615 0.106685633 0.11057692308
          0.066805845511 0 0 0.074226804124 0.16062992126 0.16759776536
          0.12362637363 0.11292346299 0.16759776536 0.16062992126 0.074226804124 0
          0 0.084427767355 0.19942196532 0.25769230769 0.33877038896 0.39145496536
          0.25769230769 0.19942196532 0.084427767355 0 0 0.093945720251
          0.25320512821 0.35988620199 0.41899441341 0.46666666667 0.35988620199 0.25320512821
          0.093945720251 0 0 0.10588235294 0.31407942238 0.39903846154
          0.44409448819 0.48988439306 0.39903846154 0.31407942238 0.10588235294 0
          0 0.16718266254 0.36705882353 0.43841336117 0.44536082474 0.49530956848
          0.43841336117 0.36705882353 0.16718266254 0 0 0.16728624535
          0.36543909348 0.43718592965 0.44554455446 0.49435665914 0.43718592965 0.36543909348
          0.16728624535 0 0 0 0 0
          0 0 0 0 0 0
          0 0.025280898876 0 0 0 0
          0 0 0.025280898876 0 0 0.049568965517
          0.066666666667 0.038461538462 0.013005780347 0.012016021362 0.038461538462 0.066666666667
          0.049568965517 0 0 0.06309751434 0.1050295858 0.10367454068
          0.037179487179 0.034360189573 0.10367454068 0.1050295858 0.06309751434 0
          0 0.071294559099 0.15462427746 0.1641025641 0.12296110414 0.11316397229
          0.1641025641 0.15462427746 0.071294559099 0 0 0.082616179002
          0.19359145527 0.25473933649 0.34064665127 0.38930481283 0.25473933649 0.19359145527
          0.082616179002 0 0 0.093690248566 0.24852071006 0.35564304462
          0.41923076923 0.46327014218 0.35564304462 0.24852071006 0.093690248566 0
          0 0.10775862069 0.30833333333 0.39349112426 0.4436416185 0.48598130841
          0.39349112426 0.30833333333 0.10775862069 0 0 0.16292134831
          0.35560344828 0.43021032505 0.44465290807 0.49053356282 0.43021032505 0.35560344828
          0.16292134831 0 0 0.16216216216 0.35324675325 0.42857142857
          0.44469525959 0.48962655602 0.42857142857 0.35324675325 0.16216216216 0
          0 0 0 0 0 0
          0 0 0 0 0 0.025
          0 0 0 0 0 0
          0.025 0 0 0.05023923445 0.068391866913 0.039344262295
          0.012820512821 0.011834319527 0.039344262295 0.068391866913 0.05023923445 0
          0 0.063694267516 0.10819672131 0.10465116279 0.036984352774 0.034120734908
          0.10465116279 0.10819672131 0.063694267516 0 0 0.070981210856
          0.15544871795 0.16500711238 0.12290502793 0.11282051282 0.16500711238 0.15544871795
          0.070981210856 0 0 0.082217973231 0.19378698225 0.25459317585
          0.33974358974 0.38981042654 0.25459317585 0.19378698225 0.082217973231 0
          0 0.093418259023 0.24918032787 0.35610465116 0.41963015647 0.46456692913
          0.35610465116 0.24918032787 0.093418259023 0 0 0.10765550239
          0.30868761553 0.39508196721 0.44391025641 0.48668639053 0.39508196721 0.30868761553
          0.10765550239 0 0 0.1625 0.35645933014 0.43099787686
          0.44467640919 0.4913957935 0.43099787686 0.35645933014 0.1625 0
          0 0.16165413534 0.35446685879 0.42966751918 0.44472361809 0.49078341014
          0.42966751918 0.35446685879 0.16165413534 0 0 0
          0 0 0 0 0 0
          0 0 0 0.024647887324 0 0
          0 0 0 0 0.024647887324 0
          0 0.051212938005 0.06875 0.038817005545 0.012635379061 0.011666666667
          0.038817005545 0.06875 0.051212938005 0 0 0.064593301435
          0.10905730129 0.10491803279 0.036858974359 0.034023668639 0.10491803279 0.10905730129
          0.064593301435 0 0 0.070588235294 0.15523465704 0.16506410256
          0.12283464567 0.11271676301 0.16506410256 0.15523465704 0.070588235294 0
          0 0.081896551724 0.19333333333 0.25443786982 0.33959537572 0.38985313752
          0.25443786982 0.19333333333 0.081896551724 0 0 0.093301435407
          0.24768946396 0.35573770492 0.41987179487 0.46449704142 0.35573770492 0.24768946396
          0.093301435407 0 0 0.10781671159 0.30833333333 0.39556377079
          0.4440433213 0.48666666667 0.39556377079 0.30833333333 0.10781671159 0
          0 0.16197183099 0.35579514825 0.43062200957 0.44470588235 0.49137931034
          0.43062200957 0.35579514825 0.16197183099 0 0 0.16101694915
          0.3538961039 0.42939481268 0.4447592068 0.49090909091 0.42939481268 0.3538961039
          0.16101694915 0 0 0 0 0
          0 0 0 0 0 0
          0 0.027906976744 0 0 0 0
          0 0 0.027906976744 0 0 0.056338028169
          0.072776280323 0.040669856459 0.014117647059 0.012931034483 0.040669856459 0.072776280323
          0.056338028169 0 0 0.06875 0.11483253589 0.10828025478
          0.0375782881 0.034416826004 0.10828025478 0.11483253589 0.06875 0
          0 0.074303405573 0.16235294118 0.16910229645 0.12371134021 0.11257035647
          0.16910229645 0.16235294118 0.074303405573 0 0 0.084269662921
          0.20043103448 0.25812619503 0.33771106942 0.39242685026 0.25812619503 0.20043103448
          0.084269662921 0 0 0.09375 0.25358851675 0.36093418259
          0.41962421712 0.46845124283 0.36093418259 0.25358851675 0.09375 0
          0 0.10563380282 0.3153638814 0.4019138756 0.44470588235 0.49137931034
          0.4019138756 0.3153638814 0.10563380282 0 0 0.16744186047
          0.36971830986 0.440625 0.44582043344 0.49719101124 0.440625 0.36971830986
          0.16744186047 0 0 0.16759776536 0.3686440678 0.43984962406
          0.44609665428 0.49662162162 0.43984962406 0.3686440678 0.16759776536 0
          0 0 0 0 0 0
          0 0 0 0 0 0.027932960894
          0 0 0 0 0 0
          0.027932960894 0 0 0.055084745763 0.071428571429 0.040345821326
          0.014164305949 0.012987012987 0.040345821326 0.071428571429 0.055084745763 0
          0 0.067669172932 0.11239193084 0.1074168798 0.037688442211 0.034562211982
          0.1074168798 0.11239193084 0.067669172932 0 0 0.074349442379
          0.16147308782 0.16834170854 0.12376237624 0.11286681716 0.16834170854 0.16147308782
          0.074349442379 0 0 0.084459459459 0.2 0.25806451613
          0.33860045147 0.39211618257 0.25806451613 0.2 0.084459459459 0
          0 0.093984962406 0.25360230548 0.36061381074 0.41959798995 0.46774193548
          0.36061381074 0.25360230548 0.093984962406 0 0 0.10593220339
          0.31493506494 0.40057636888 0.4447592068 0.49090909091 0.40057636888 0.31493506494
          0.10593220339 0 0 0.16759776536 0.3686440678 0.43984962406
          0.44609665428 0.49662162162 0.43984962406 0.3686440678 0.16759776536 0
          0 0.1677852349 0.36734693878 0.43891402715 0.44642857143 0.49593495935
          0.43891402715 0.36734693878 0.1677852349 0
        </DataArray>
        <DataArray type="Float64" Name="Displacement" NumberOfComponents="3" format="ascii" RangeMin="1.9499718851" RangeMax="1.9661340445">
          -0.003539295248 1.9655029874 -0.0040054669507 -0.00069982620442 1.9607185849 -0.0018752651178
          -0.00070276538418 1.9597493307 -0.0021645316591 -0.00083370215254 1.9597737918 -0.0022521880168
          -0.00091774021215 1.9597101729 -0.0022103914753 -0.00096669301759 1.9596235324 -0.0022457087955
          -0.00089445986714 1.9596033967 -0.0022472089458 -0.0010472710358 1.9594685171 -0.0021604469167
          -0.001074834899 1.9603311196 -0.0018789232541 0.0019833356576 1.9651986721 -0.0039135283976
          -0.00038323483112 1.9606909695 -0.0014671291846 -0.00016260833513 1.9594996862 -0.0019798227834
          -0.00074149448257 1.9581202339 -0.0010254261817 -0.0009561270974 1.9581215191 -0.00099502099653
          -0.00083167390598 1.958106736 -0.0010832799516 -0.00068329857018 1.9581011145 -0.0011057636636
          -0.00070974693079 1.9579334709 -0.00099177607986 -0.00088580167082 1.9578358206 -0.0010004048218
          -0.0014930550043 1.9591230381 -0.001982850641 -0.0012524678353 1.9602090927 -0.0014250082112
          -0.00026334237289 1.9588810547 -0.0019881461956 -0.0010861056382 1.9591466054 -0.0014821257066
          -0.00075799505881 1.9590358594 -0.0018866043129 -0.0010444066131 1.9586143192 -0.001590976821
          -0.00083062959835 1.958485542 -0.001743248536 -0.00073204333963 1.9584709907 -0.0017027625286
          -0.00048885565174 1.9584640216 -0.0015861605291 -0.0007849517981 1.9587817127 -0.0018888561847
          -0.00043743577362 1.9587897927 -0.0014728509586 -0.0013083907224 1.9584072349 -0.0020043396482
          -0.00030878740947 1.959305946 -0.002370475012 -0.0012978545126 1.9590894396 -0.0014373790086
          -0.0010660081216 1.9591300123 -0.0018074685846 -0.00078889608101 1.9589107172 -0.0020378973754
          -0.00076593196483 1.9586591801 -0.0022343162522 -0.00070374994884 1.9586462327 -0.0022027250048
          -0.00064729681127 1.9587560193 -0.0020422232457 -0.00037590412214 1.9588798818 -0.0018128867262
          -0.00011032120806 1.9587375742 -0.0014220895287 -0.0011514556404 1.9588559344 -0.0023930108281
          -0.0002202535507 1.9590664023 -0.00246728064 -0.0013499743283 1.959635974 -0.0015654528732
          -0.00093337752466 1.9591623912 -0.0018904392292 -0.00036252881999 1.9590934905 -0.0021883760421
          -0.00039760421282 1.9591062321 -0.0021125580511 -0.00087252596491 1.9589064269 -0.0021531324664
          -0.00096892978387 1.9589523658 -0.0021900788522 -0.00040638762739 1.9589096971 -0.0018924430199
          4.769148616e-05 1.9592811063 -0.0015407123649 -0.0011353097963 1.9586270749 -0.0024818992648
          -0.00015820789122 1.9594410016 -0.0025330573953 -0.0013365487872 1.9591358919 -0.0016557402107
          -0.00069302299163 1.9590478413 -0.002106777475 -0.00047938187066 1.9589227678 -0.0022741867318
          -3.7356799423e-05 1.9588791172 -0.0020902831831 -0.0011981918461 1.9588439324 -0.0020763667765
          -0.00075119046177 1.9587891431 -0.0022630851477 -0.00053259037431 1.9588014596 -0.002096461795
          0.00014103218928 1.9587810121 -0.0016190291345 -0.0010887112897 1.958994512 -0.0025244931594
          2.6526561242e-05 1.95931 -0.0026600624525 -0.00096102381795 1.9594291947 -0.0016491683776
          -0.00053368285857 1.9590910506 -0.0020640882593 -8.4852350125e-05 1.9588968396 -0.0022073061033
          -0.00065583497239 1.9591572029 -0.0024589448108 -0.00047549591612 1.9591428529 -0.0024311918477
          -0.0010203626049 1.9587570609 -0.0022030835266 -0.00056664312865 1.9588389922 -0.0020524674166
          -0.0001264613406 1.9590748378 -0.0016120082368 -0.0011691622845 1.9588739772 -0.0026457808058
          3.8732684345e-05 1.9593577922 -0.0026181931259 -0.00029654182564 1.9593294469 -0.0021713679009
          -0.00056356370654 1.9593042904 -0.0020625504708 -0.00052273163186 1.9591411022 -0.0023149512388
          -0.00049940521796 1.958876061 -0.0026849806303 -0.00051850928397 1.9588838979 -0.0026408804957
          -0.00046733920033 1.9590147822 -0.0022965826058 -0.00041593024811 1.959062472 -0.0020361401642
          -0.00069674058714 1.958995901 -0.002123736601 -0.0010870225763 1.9589467524 -0.0025921016883
          -0.00060182681648 1.9574380959 -0.003826373659 -0.00014782840071 1.9570238292 -0.0043645591258
          -4.0049811982e-05 1.9579399422 -0.003822311616 -9.2342754282e-05 1.9573146169 -0.0042524668272
          0.0012333283391 1.9555707859 -0.0045064958602 -0.0021421750832 1.9555584072 -0.0044808514714
          -0.00079062362866 1.9572156919 -0.0042162702382 -0.0008430197196 1.9577410842 -0.0037663985663
          -0.00076706910859 1.9567222828 -0.0043089095947 -0.0003313362427 1.9569596712 -0.0038459337713
          -0.00081063384323 1.9505553168 -0.0086775220689 -0.00057942299345 1.9538060665 -0.0067717708381
          0.00022983435183 1.9551444968 -0.0065960268807 0.00020702447512 1.9544878479 -0.0065330715365
          0.0015265140497 1.9515488697 -0.0068152163201 -0.0023847628689 1.9514495984 -0.0068285256686
          -0.00099246770014 1.9543481054 -0.0065419378986 -0.0010253018815 1.9549522642 -0.0065621737028
          -0.00025239010263 1.953502262 -0.0067722865609 -1.8761363544e-05 1.9499517851 -0.0088537075688
          -0.0011665171234 1.9608185386 -0.0022478590986 -0.0014055170071 1.9599779921 -0.0022067332953
          -0.00090914139294 1.9584970466 -0.00090952804528 -0.00086803334054 1.9583095816 -0.00085977095203
          -0.00086531461407 1.9583221286 -0.00088892282374 -0.00083038839052 1.9582861085 -0.00094342252246
          -0.00092523293391 1.9581141754 -0.00085210535623 -0.00084042283137 1.9582052893 -0.00087788699115
          -0.00036397909561 1.959580695 -0.0021977904371 -0.00056207204835 1.9603924897 -0.0022403837277
          -0.00093848855981 1.9594260461 -0.0016551356037 -0.00086197669496 1.959198372 -0.0016022762688
          -0.00095224220347 1.9590013413 -0.0015737929913 -0.00092862931809 1.9585510684 -0.0012398645705
          -0.00087599179205 1.9583684415 -0.0012144116276 -0.00077847572788 1.958303728 -0.0011693543646
          -0.00072091393807 1.9583982697 -0.0012367347736 -0.00070817030962 1.9587436219 -0.0015881412985
          -0.00078418465851 1.9588215384 -0.0015904807802 -0.00072842522403 1.9589413122 -0.0016478279226
          -0.0011186775032 1.9594360586 -0.0014536635336 -0.00053950145731 1.9590403232 -0.0018458939302
          -0.00097380689337 1.9591093753 -0.0016001544219 -0.00083008916883 1.9591021249 -0.0020263017446
          -0.00079652466021 1.958966266 -0.0020712007951 -0.00074661609395 1.9589152133 -0.002070532726
          -0.00071368885188 1.9589512101 -0.002026379392 -0.00057321836473 1.9588549571 -0.0016005206673
          -0.0010026227149 1.9586837104 -0.0018424291858 -0.00042201552105 1.9589770785 -0.0014417717876
          -0.0011451875294 1.9593743966 -0.0014537760755 -0.00093993557505 1.959286207 -0.0019214653091
          -0.00074379923276 1.9590812773 -0.0021344938432 -0.00076383226125 1.9589854246 -0.0021926069147
          -0.00074715418201 1.958864567 -0.0022171649998 -0.00070927448713 1.9588169813 -0.0022047928226
          -0.00067861327401 1.9588427766 -0.0021858306724 -0.00070079096527 1.9588293095 -0.0021347089906
          -0.00050331058619 1.9589256765 -0.0019171188915 -0.00028439869397 1.9589122698 -0.001428933589
          -0.0010490548425 1.9596042407 -0.0016373535833 -0.00085269534726 1.9592728013 -0.0018077077591
          -0.00058678002637 1.9592248041 -0.002187858208 -0.00061296427476 1.9590660845 -0.002219574397
          -0.00066836656241 1.9588311794 -0.0022756419325 -0.00067932466499 1.958776466 -0.0022727327425
          -0.00072374459481 1.9589164293 -0.0022128685293 -0.00075038387673 1.9589742141 -0.0021879467513
          -0.00048660503953 1.9589090128 -0.0018005579879 -0.00027687082313 1.9591312061 -0.0016017216417
          -0.0010723086334 1.9593224884 -0.001596482344 -0.00071882013979 1.9592659781 -0.0020632580691
          -0.00044990099312 1.9592037056 -0.0022999152298 -0.00029237035295 1.9591808403 -0.0022264535008
          -0.00050341565154 1.9589494086 -0.0024588825168 -0.00072224930626 1.9589078505 -0.0024500967188
          -0.00093730827484 1.9590305318 -0.0022097192735 -0.000786164819 1.958955556 -0.0022846906492
          -0.00051695083962 1.95891195 -0.0020417178615 -0.00014879099243 1.9588565251 -0.0015484635623
          -0.00086141753689 1.9596265769 -0.0015038019226 -0.00037758579093 1.9592097637 -0.0023250405327
          -0.00035750373991 1.9591002583 -0.0023399117923 -9.9409283756e-05 1.9590341192 -0.0023764811145
          -1.2120680939e-05 1.9587786796 -0.0023129016259 -0.0010933801971 1.9587424171 -0.0023148072232
          -0.001008926824 1.9588882036 -0.0023718517958 -0.00075988923614 1.9588502125 -0.0023249552283
          -0.00073604117385 1.9588521558 -0.0022998263826 -0.00024432767524 1.9591598144 -0.0014555658723
          -0.00026952408668 1.9595670236 -0.0020868294189 -4.6393472512e-05 1.959369251 -0.0022760117235
          -0.00017732673381 1.9588007691 -0.00280332159 -0.00020463121798 1.9586154657 -0.0028725846305
          -5.5758354967e-05 1.9593091353 -0.0017609220438 -0.00093482106389 1.9592837484 -0.0017599774396
          -0.00078545003656 1.9584706841 -0.0028731827415 -0.00081080557984 1.958545961 -0.002795629636
          -0.00094133470011 1.9590074083 -0.002251166761 -0.00073656070515 1.9591246088 -0.0020339868047
          0.00037511609526 1.9587553433 -0.0033821797706 0.00030342316598 1.9599651346 -0.0019279789723
          1.1396924741e-05 1.9593533502 -0.002092190628 -0.00043825499467 1.9593195883 -0.0022714721667
          -0.0010636254901 1.9598101578 -0.0025864419505 0.00019984547832 1.9598143392 -0.0025595889177
          -0.00044010097887 1.9591792552 -0.0022527756049 -0.00089312954226 1.9590920131 -0.0020748185976
          -0.001193772909 1.959627068 -0.001871481848 -0.0013281459709 1.9583812856 -0.003318861451
          -0.002241414164 1.9573187459 -0.0036605788514 0.0024582060176 1.9618277498 -0.0021635702047
          0.0011663190437 1.9618589472 -0.00077462273631 -0.0015161245133 1.9614000316 -0.0013543521739
          0.0010994157048 1.9583439062 -0.0033624787752 -0.0018787646666 1.9583025224 -0.0033591386478
          0.00072276695755 1.9612781159 -0.001342883359 -0.0019835576393 1.9616542516 -0.00079907540872
          -0.0033323305846 1.9616180133 -0.0021414578323 0.0013267348809 1.9570855537 -0.0036164439755
          -0.0014303742561 1.9594483295 -0.0016316912575 -0.00055021621554 1.9589506364 -0.0019859281514
          -0.00093372085326 1.9590904548 -0.0018631737524 -0.00087019863932 1.9586921087 -0.0013494708132
          -0.00088462624195 1.9585943571 -0.0013208009679 -0.00088329111651 1.9585678267 -0.0013049330464
          -0.00089638904711 1.9585316732 -0.0013498941499 -0.0008342462802 1.9588324044 -0.0018803384913
          -0.0012418166922 1.9585487734 -0.0019854747962 -0.00035294915397 1.9589478805 -0.0016200980566
          -0.00053341906581 1.9589564685 -0.0019306258008 -0.00069082698391 1.9587988817 -0.0016716954733
          -0.00089185183778 1.9591295465 -0.0017905578039 -0.00093370618126 1.9591982591 -0.0019393851138
          -0.00085814561008 1.9591373788 -0.0019843065272 -0.00079844083213 1.9590822939 -0.0019838681297
          -0.00072079185403 1.9590447073 -0.0019394196802 -0.00076441145132 1.9588645757 -0.0017906474156
          -0.00095802291125 1.9584445659 -0.0016762143576 -0.0011364492344 1.9584626765 -0.0019213538776
          -0.00066442466816 1.9591840993 -0.0019648984062 -0.0010357332242 1.959425759 -0.0018441957369
          -0.00088554967359 1.9593313649 -0.0019955467272 -0.00080747499805 1.9592690671 -0.0021095745504
          -0.00079813482363 1.9591458407 -0.0021263509111 -0.00074094097503 1.9590823146 -0.0021411080343
          -0.00074576145708 1.959114343 -0.0021112268591 -0.00066886444631 1.9590735315 -0.0019965239937
          -0.00051905412573 1.9590628941 -0.0018451269954 -0.00087520688406 1.9587266114 -0.0019560773911
          -0.00084133638311 1.9593046167 -0.0020105979189 -0.00083051850114 1.9592657528 -0.0020334257598
          -0.00075954490543 1.9592525457 -0.0021914392702 -0.00076962833061 1.9591617937 -0.0022736660005
          -0.00074788339519 1.9590346551 -0.0022453707824 -0.00071303111726 1.958998142 -0.0022487386081
          -0.00068169705544 1.9590179687 -0.0022753959144 -0.00068986133363 1.9589979542 -0.0021903920187
          -0.00062301976696 1.9589031161 -0.0020318995273 -0.00061503774545 1.9588224792 -0.0020046618586
          -0.00082645519624 1.9593861206 -0.0020393281594 -0.00061914845823 1.9592808783 -0.0022989089318
          -0.0005807167163 1.9592788243 -0.0023044881436 -0.00075223408348 1.9592042474 -0.0023699183324
          -0.00067819398225 1.959089426 -0.002389192202 -0.00071429183719 1.9590205636 -0.0023921990183
          -0.0005944864485 1.9590584335 -0.0023700338892 -0.00076036305303 1.9590245927 -0.0023022083764
          -0.00072958979654 1.9589214006 -0.0022994309108 -0.00052567900965 1.9588986436 -0.0020384145074
          -0.00064309409192 1.959465351 -0.0018960719181 -0.00047041089964 1.9595274726 -0.0021338283746
          -0.00043193445878 1.9593272611 -0.0022900434456 -0.00043790085027 1.9592919782 -0.0023211000844
          -0.00010169187237 1.9592227364 -0.002105052949 -0.0011251078974 1.9591850551 -0.002112132722
          -0.00079594834239 1.9591402497 -0.0023265784086 -0.00080450050212 1.9590727534 -0.0022920532858
          -0.00077029868067 1.9591688299 -0.002131972941 -0.00059675504626 1.9590033464 -0.0018879053591
          -0.00044891539329 1.959566445 -0.0022516549216 -0.00063833651692 1.9594536181 -0.0021687541903
          -0.00024652686628 1.9593606584 -0.0022762431649 0.00011027936416 1.9592945322 -0.002221025177
          0.00032113845639 1.9590676889 -0.0021533948156 -0.0014347503924 1.9590341248 -0.0021621211067
          -0.0012293345268 1.9591470999 -0.0022218700492 -0.00087973859522 1.9591093367 -0.0022710462555
          -0.00048943176921 1.9591010376 -0.0021577027113 -0.00067130626756 1.9591042549 -0.0022364039075
          0.00022520110749 1.9603356608 -0.0023534150852 -0.00056122925188 1.9594927186 -0.0023431606498
          -0.00045607897499 1.9592010878 -0.0025087698154 0.0001331184602 1.9591850045 -0.0024938926895
          -0.00071778267596 1.9594680611 -0.0027623074774 -0.00029258622203 1.9594354937 -0.002770084057
          -0.0011357859576 1.9590455241 -0.0024912909418 -0.00054725525942 1.9589549612 -0.0024955398723
          -0.00043711147841 1.9591390499 -0.0023237950559 -0.0012240373186 1.9598765659 -0.0023328125316
          0.0011638060952 1.9607819486 -0.0027538634898 0.00022507292656 1.9596984457 -0.0021564746219
          6.0755450242e-05 1.9580751113 -0.0028589470143 -0.00052067136204 1.9586592178 -0.0025774087804
          -0.00042915723576 1.9594232342 -0.0021499199929 -0.0004542347197 1.9594107696 -0.0021482830878
          -0.00038954695346 1.9585131026 -0.0025839416489 -0.00095170310098 1.9578350541 -0.0028662203926
          -0.0010971392012 1.9593364728 -0.0021502680797 -0.0020996520087 1.9604001551 -0.0027094632561
          -0.00045685686271 1.9593449442 -0.0038980529242 0.0042579142478 1.9625649593 -0.0033084172497
          0.00088833214693 1.9583092681 -0.0054129051305 -0.00242213327 1.9597555535 -0.0044949148582
          -0.0010969241025 1.9613299417 -0.0025987642683 0.00031600269203 1.9613170724 -0.0025666110139
          0.0015820647652 1.9595823894 -0.004482737475 -0.0017100538335 1.9580334485 -0.0054289597073
          -0.0051113622427 1.9621985345 -0.0033249904491 -0.000621142063 1.9590866719 -0.0038844315982
          -0.0015124803782 1.9596796307 -0.0019434937522 -0.00067916848089 1.9588850715 -0.0018537357185
          -0.00044516964839 1.9587499333 -0.0017313971278 -0.00085778397719 1.9591635674 -0.001826454938
          -0.00090190962644 1.9591672425 -0.0018979200166 -0.00087584506037 1.9591322008 -0.001877162405
          -0.00090979689522 1.9589991385 -0.0018236771407 -0.0013254609883 1.9584774099 -0.0017299795906
          -0.001121237762 1.958483305 -0.0018582488349 -0.000275134641 1.9591776007 -0.0019378063911
          -0.0006072027559 1.9590309371 -0.0019777064391 -0.00036390555135 1.9587050195 -0.0018963370848
          -0.00097067151735 1.9594261501 -0.0020088897428 -0.0008885660261 1.9593741139 -0.0020238211017
          -0.00084461283621 1.9592607479 -0.0020072853964 -0.00083342612923 1.9592186028 -0.0019992310601
          -0.00076961790917 1.9592171821 -0.0020266279061 -0.00068376295214 1.9591636098 -0.0020103920939
          -0.0012873175206 1.9583423585 -0.0018957643665 -0.0010747607598 1.9585338102 -0.0019813426166
          -0.00060222326354 1.9592578007 -0.0020062931095 -0.00096878613662 1.9594958593 -0.0019978399585
          -0.00087139109146 1.9594928687 -0.0020869875975 -0.00086403065933 1.9593263514 -0.0021318071619
          -0.0008040817592 1.9591956746 -0.0021602918334 -0.00074609168533 1.9591452738 -0.0021621981013
          -0.00069041332487 1.9591657687 -0.0021396670417 -0.0006828665973 1.9592294054 -0.0020915123382
          -0.00058670161381 1.9591290612 -0.0019994144794 -0.00095118050225 1.9587848343 -0.0020039021237
          -0.00079397502596 1.959438901 -0.0021502340219 -0.00075649933665 1.9594080686 -0.002146915411
          -0.00077441422428 1.9593331323 -0.0022086650932 -0.00074830622599 1.9592675699 -0.0021813602375
          -0.00075609720971 1.9591338661 -0.0021986049735 -0.00068632022599 1.9590787116 -0.0021973181488
          -0.00070369719472 1.9591177095 -0.002185276404 -0.00067629791337 1.959075969 -0.0022117827937