<?xml version="1.0"?>
<VTKFile type="UnstructuredGrid" version="0.1" byte_order="LittleEndian" compressor="vtkZLibDataCompressor">
  <UnstructuredGrid>
    <FieldData>
      <DataArray type="Float64" Name="TIME" NumberOfTuples="1" format="ascii" RangeMin="1.230906169" RangeMax="1.230906169">
        1.230906169
      </DataArray>
    </FieldData>
    <Piece NumberOfPoints="1000" NumberOfCells="0">
      <PointData>
        <DataArray type="Float64" Name="Damage" format="ascii" RangeMin="0" RangeMax="0.5081300813">
          0.024193548387 0.006711409396 0 0 0 0
          0 0.010204081633 0.046979865772 0.12903225806 0.006711409396 0.027932960894
          0 0 0 0 0 0
          0.033519553073 0.013422818792 0 0.055084745763 0.071428571429 0.040345821326
          0.014164305949 0.012987012987 0.040345821326 0.071428571429 0.055084745763 0.0051020408163
          0 0.067669172932 0.11239193084 0.1074168798 0.037688442211 0.034562211982
          0.1074168798 0.11239193084 0.067669172932 0 0 0.074349442379
          0.16147308782 0.16834170854 0.12376237624 0.11286681716 0.16834170854 0.16147308782
          0.074349442379 0 0 0.084459459459 0.2 0.25806451613
          0.33860045147 0.39211618257 0.25806451613 0.2 0.084459459459 0
          0 0.093984962406 0.25360230548 0.36061381074 0.41959798995 0.46774193548
          0.36061381074 0.25360230548 0.093984962406 0 0 0.10593220339
          0.31493506494 0.40057636888 0.4447592068 0.49090909091 0.40057636888 0.31493506494
          0.10593220339 0 0 0.17318435754 0.3686440678 0.43984962406
          0.44981412639 0.5 0.43984962406 0.3686440678 0.17318435754 0.006711409396
          0.016129032258 0.18791946309 0.36734693878 0.44343891403 0.46428571429 0.5081300813
          0.44343891403 0.36734693878 0.18791946309 0.016129032258 0.006711409396 0
          0 0 0 0 0.0037593984962 0.012711864407
          0.016759776536 0.046979865772 0 0.027906976744 0 0
          0 0 0 0 0.032558139535 0
          0 0.056338028169 0.072776280323 0.040669856459 0.014117647059 0.012931034483
          0.040669856459 0.072776280323 0.056338028169 0 0 0.06875
          0.11483253589 0.10828025478 0.0375782881 0.034416826004 0.10828025478 0.11483253589
          0.06875 0 0 0.074303405573 0.16235294118 0.16910229645
          0.12371134021 0.11257035647 0.16910229645 0.16235294118 0.074303405573 0
          0 0.084269662921 0.20043103448 0.25812619503 0.33771106942 0.39242685026
          0.25812619503 0.20043103448 0.084269662921 0 0 0.09375
          0.25358851675 0.36093418259 0.41962421712 0.46845124283 0.36093418259 0.25358851675
          0.09375 0 0 0.10563380282 0.3153638814 0.4019138756
          0.44470588235 0.49137931034 0.4019138756 0.3153638814 0.10563380282 0
          0 0.16744186047 0.36971830986 0.440625 0.44582043344 0.49719101124
          0.440625 0.36971830986 0.16744186047 0 0.013422818792 0.17877094972
          0.3686440678 0.44360902256 0.44981412639 0.5 0.43984962406 0.3686440678
          0.17877094972 0.006711409396 0 0 0 0
          0 0 0.0028818443804 0.0064935064935 0.012711864407 0.020408163265
          0 0.024647887324 0 0 0 0
          0 0 0.028169014085 0 0 0.051212938005
          0.06875 0.038817005545 0.012635379061 0.011666666667 0.038817005545 0.06875
          0.051212938005 0 0 0.064593301435 0.10905730129 0.10491803279
          0.036858974359 0.034023668639 0.10491803279 0.10905730129 0.064593301435 0
          0 0.070588235294 0.15523465704 0.16506410256 0.12283464567 0.11271676301
          0.16506410256 0.15523465704 0.070588235294 0 0 0.081896551724
          0.19333333333 0.25443786982 0.33959537572 0.38985313752 0.25443786982 0.19333333333
          0.081896551724 0 0 0.093301435407 0.24768946396 0.35573770492
          0.41987179487 0.46449704142 0.35573770492 0.24768946396 0.093301435407 0
          0 0.10781671159 0.30833333333 0.39556377079 0.4440433213 0.48666666667
          0.39556377079 0.30833333333 0.10781671159 0 0 0.16197183099
          0.35579514825 0.43062200957 0.44470588235 0.49137931034 0.43062200957 0.35579514825
          0.16197183099 0 0 0.16101694915 0.3538961039 0.42939481268
          0.4447592068 0.49090909091 0.42939481268 0.3538961039 0.16101694915 0
          0 0 0 0 0 0
          0 0.0028818443804 0.0075187969925 0 0 0.025
          0 0 0 0 0 0
          0.025 0 0 0.05023923445 0.068391866913 0.039344262295
          0.012820512821 0.011834319527 0.039344262295 0.068391866913 0.05023923445 0
          0 0.063694267516 0.10819672131 0.10465116279 0.036984352774 0.034120734908
          0.10465116279 0.10819672131 0.063694267516 0 0 0.070981210856
          0.15544871795 0.16500711238 0.12290502793 0.11282051282 0.16500711238 0.15544871795
          0.070981210856 0 0 0.082217973231 0.19378698225 0.25459317585
          0.33974358974 0.38981042654 0.25459317585 0.19378698225 0.082217973231 0
          0 0.093418259023 0.24918032787 0.35610465116 0.41963015647 0.46456692913
          0.35610465116 0.24918032787 0.093418259023 0 0 0.10765550239
          0.30868761553 0.39508196721 0.44391025641 0.48668639053 0.39508196721 0.30868761553
          0.10765550239 0 0 0.1625 0.35645933014 0.43099787686
          0.44467640919 0.4913957935 0.43099787686 0.35645933014 0.1625 0
          0 0.16165413534 0.35446685879 0.42966751918 0.44472361809 0.49078341014
          0.42966751918 0.35446685879 0.16165413534 0 0 0
          0 0 0 0 0 0
          0 0 0 0.02786377709 0 0
          0 0 0 0 0.02786377709 0
          0 0.054117647059 0.070397111913 0.040064102564 0.014173228346 0.013005780347
          0.040064102564 0.070397111913 0.054117647059 0 0 0.066805845511
          0.11057692308 0.106685633 0.037709497207 0.034615384615 0.106685633 0.11057692308
          0.066805845511 0 0 0.074226804124 0.16062992126 0.16759776536
          0.12362637363 0.11292346299 0.16759776536 0.16062992126 0.074226804124 0
          0 0.084427767355 0.19942196532 0.25769230769 0.33877038896 0.39145496536
          0.25769230769 0.19942196532 0.084427767355 0 0 0.093945720251
          0.25320512821 0.35988620199 0.41899441341 0.46666666667 0.35988620199 0.25320512821
          0.093945720251 0 0 0.10588235294 0.31407942238 0.39903846154
          0.44409448819 0.48988439306 0.39903846154 0.31407942238 0.10588235294 0
          0 0.16718266254 0.36705882353 0.43841336117 0.44536082474 0.49530956848
          0.43841336117 0.36705882353 0.16718266254 0 0 0.16728624535
          0.36543909348 0.43718592965 0.44554455446 0.49435665914 0.43718592965 0.36543909348
          0.16728624535 0 0 0 0 0
          0 0 0 0 0 0
          0 0.025280898876 0 0 0 0
          0 0 0.025280898876 0 0 0.049568965517
          0.066666666667 0.038461538462 0.013005780347 0.012016021362 0.038461538462 0.066666666667
          0.049568965517 0 0 0.06309751434 0.1050295858 0.10367454068
          0.037179487179 0.034360189573 0.10367454068 0.1050295858 0.06309751434 0
          0 0.071294559099 0.15462427746 0.1641025641 0.12296110414 0.11316397229
          0.1641025641 0.15462427746 0.071294559099 0 0 0.082616179002
          0.19359145527 0.25473933649 0.34064665127 0.38930481283 0.25473933649 0.19359145527
          0.082616179002 0 0 0.093690248566 0.24852071006 0.35564304462
          0.41923076923 0.46327014218 0.35564304462 0.24852071006 0.093690248566 0
          0 0.10775862069 0.30833333333 0.39349112426 0.4436416185 0.48598130841
          0.39349112426 0.30833333333 0.10775862069 0 0 0.16292134831
          0.35560344828 0.43021032505 0.44465290807 0.49053356282 0.43021032505 0.35560344828
          0.16292134831 0 0 0.16216216216 0.35324675325 0.42857142857
          0.44469525959 0.48962655602 0.42857142857 0.35324675325 0.16216216216 0
          0.0045248868778 0.0037593984962 0 0 0 0
          0 0 0 0 0 0.025
          0 0 0 0 0 0
          0.025 0 0 0.05023923445 0.068391866913 0.039344262295
          0.012820512821 0.011834319527 0.039344262295 0.068391866913 0.05023923445 0
          0 0.063694267516 0.10819672131 0.10465116279 0.036984352774 0.034120734908
          0.10465116279 0.10819672131 0.063694267516 0 0 0.070981210856
          0.15544871795 0.16500711238 0.12290502793 0.11282051282 0.16500711238 0.15544871795
          0.070981210856 0 0 0.082217973231 0.19378698225 0.25459317585
          0.33974358974 0.38981042654 0.25459317585 0.19378698225 0.082217973231 0
          0 0.093418259023 0.24918032787 0.35610465116 0.41963015647 0.46456692913
          0.35610465116 0.24918032787 0.093418259023 0 0 0.10765550239
          0.30868761553 0.39508196721 0.44391025641 0.48668639053 0.39508196721 0.30868761553
          0.10765550239 0 0 0.1625 0.35645933014 0.43099787686
          0.44467640919 0.4913957935 0.43099787686 0.35645933014 0.1625 0
          0 0.16165413534 0.35446685879 0.42966751918 0.44472361809 0.49078341014
          0.42966751918 0.35446685879 0.16165413534 0 0.025510204082 0.0084745762712
          0 0 0 0 0 0
          0 0 0.0042372881356 0.024647887324 0 0
          0 0 0 0 0.024647887324 0
          0 0.051212938005 0.06875 0.038817005545 0.012635379061 0.011666666667
          0.038817005545 0.06875 0.051212938005 0 0 0.064593301435
          0.10905730129 0.10491803279 0.036858974359 0.034023668639 0.10491803279 0.10905730129
          0.064593301435 0 0 0.070588235294 0.15523465704 0.16506410256
          0.12283464567 0.11271676301 0.16506410256 0.15523465704 0.070588235294 0
          0 0.081896551724 0.19333333333 0.25443786982 0.33959537572 0.38985313752
          0.25443786982 0.19333333333 0.081896551724 0 0 0.093301435407
          0.24768946396 0.35573770492 0.41987179487 0.46449704142 0.35573770492 0.24768946396
          0.093301435407 0 0 0.10781671159 0.30833333333 0.39556377079
          0.4440433213 0.48666666667 0.39556377079 0.30833333333 0.10781671159 0
          0 0.16197183099 0.35579514825 0.43062200957 0.44470588235 0.49137931034
          0.43062200957 0.35579514825 0.16197183099 0 0 0.16101694915
          0.3538961039 0.42939481268 0.4447592068 0.49090909091 0.42939481268 0.3538961039
          0.16101694915 0 0.040268456376 0.011173184358 0.0084745762712 0
          0 0 0 0 0 0.006711409396
          0.0055865921788 0.027906976744 0 0 0 0
          0 0 0.027906976744 0 0 0.056338028169
          0.072776280323 0.040669856459 0.014117647059 0.012931034483 0.040669856459 0.072776280323
          0.056338028169 0 0 0.06875 0.11483253589 0.10828025478
          0.0375782881 0.034416826004 0.10828025478 0.11483253589 0.06875 0
          0 0.074303405573 0.16235294118 0.16910229645 0.12371134021 0.11257035647
          0.16910229645 0.16235294118 0.074303405573 0 0 0.084269662921
          0.20043103448 0.25812619503 0.33771106942 0.39242685026 0.25812619503 0.20043103448
          0.084269662921 0 0 0.09375 0.25358851675 0.36093418259
          0.41962421712 0.46845124283 0.36093418259 0.25358851675 0.09375 0
          0 0.10563380282 0.3153638814 0.4019138756 0.44470588235 0.49137931034
          0.4019138756 0.3153638814 0.10563380282 0 0 0.16744186047
          0.36971830986 0.440625 0.44582043344 0.49719101124 0.440625 0.36971830986
          0.16744186047 0 0.006711409396 0.16759776536 0.3686440678 0.44360902256
          0.44981412639 0.5 0.43984962406 0.3686440678 0.17318435754 0.006711409396
          0.024193548387 0.046979865772 0.020408163265 0.0045248868778 0 0
          0 0 0 0.008064516129 0.020134228188 0.033519553073
          0.0042372881356 0 0 0 0 0
          0.027932960894 0 0.0051020408163 0.055084745763 0.071428571429 0.040345821326
          0.014164305949 0.012987012987 0.040345821326 0.071428571429 0.055084745763 0
          0 0.067669172932 0.11239193084 0.1074168798 0.037688442211 0.034562211982
          0.1074168798 0.11239193084 0.067669172932 0 0 0.074349442379
          0.16147308782 0.16834170854 0.12376237624 0.11286681716 0.16834170854 0.16147308782
          0.074349442379 0 0 0.084459459459 0.2 0.25806451613
          0.33860045147 0.39211618257 0.25806451613 0.2 0.084459459459 0
          0 0.093984962406 0.25360230548 0.36061381074 0.41959798995 0.46774193548
          0.36061381074 0.25360230548 0.093984962406 0 0 0.10593220339
          0.31493506494 0.40057636888 0.4447592068 0.49090909091 0.40057636888 0.31493506494
          0.10593220339 0 0 0.16759776536 0.3686440678 0.43984962406
          0.44981412639 0.5 0.43984962406 0.3686440678 0.16759776536 0.006711409396
          0.016129032258 0.1744966443 0.36734693878 0.44343891403 0.46428571429 0.5081300813
          0.44343891403 0.36734693878 0.18120805369 0.024193548387
        </DataArray>
        <DataArray type="Float64" Name="Displacement" NumberOfComponents="3" format="ascii" RangeMin="0.5243996059" RangeMax="2.8491219918">
          -0.11044969487 2.4363331808 -0.30511517922 -0.20579930222 2.4456918245 -0.19323516726
          -0.2938933955 2.4607095704 -0.086141996333 -0.38398374292 2.4788906773 0.018608881625
          -0.47437078492 2.492783989 0.12965467419 -0.56334151517 2.5088711618 0.23669777089
          -0.64652635597 2.5265642497 0.34112164561 -0.73637435284 2.5417202727 0.45088305851
          -0.83196987731 2.5528757742 0.55918319683 -0.9028755603 2.5835521484 0.64726489972
          -0.12853997998 2.2135091074 -0.28377610825 -0.21986260692 2.2265104775 -0.17736083001
          -0.30922206217 2.2435317051 -0.068979835498 -0.39714431952 2.2611980097 0.039342714637
          -0.48547685563 2.2774206025 0.14895873281 -0.57324674043 2.2918857505 0.25547025778
          -0.66092450076 2.3096256282 0.36062677822 -0.75130067612 2.3237822515 0.46932311421
          -0.83533164793 2.3391358597 0.57852469954 -0.92537580717 2.3559452071 0.68642363592
          -0.14325327927 1.9909121003 -0.26954818001 -0.23657599191 2.0072636117 -0.15573830979
          -0.32414058174 2.0245412077 -0.04809714777 -0.4135916869 2.0392190965 0.058595459176
          -0.50038081593 2.0568690648 0.16735446492 -0.58742167774 2.0706990394 0.27299258903
          -0.67717577783 2.0858777613 0.38212241333 -0.76550100806 2.1047681648 0.48739078792
          -0.85492775658 2.1183012725 0.59582723339 -0.94669181964 2.130632674 0.70411773627
          -0.16177591642 1.7740535093 -0.24715181918 -0.25119087306 1.7884094265 -0.13638375084
          -0.33832498914 1.8037225731 -0.030576706764 -0.42847911606 1.8205070213 0.07860179884
          -0.51714038652 1.8346309422 0.18518042147 -0.60588745538 1.8526531147 0.29346692032
          -0.69130359936 1.8688783446 0.40135959959 -0.78039116578 1.8834891808 0.50841533006
          -0.86686388848 1.9002597942 0.61630025585 -0.9563230092 1.9172113352 0.72338565259
          -0.17918659568 1.5524078724 -0.22216605454 -0.26521403655 1.5673847524 -0.11853495088
          -0.3532441962 1.583982458 -0.010431325969 -0.44284083593 1.6007370709 0.096199843239
          -0.53012071594 1.6165793247 0.2048322304 -0.61908229431 1.6356338257 0.31230939553
          -0.70844153388 1.6479026142 0.41956312128 -0.79608552269 1.6643432799 0.52630493717
          -0.88154052137 1.6813319403 0.63566349426 -0.97488122858 1.6971078606 0.74008584883
          -0.1962143365 1.3352456509 -0.20017600444 -0.27992504174 1.3488990409 -0.097152551698
          -0.36795666392 1.3647176389 0.008919302378 -0.45788439269 1.3822411113 0.11536989732
          -0.54533548079 1.3991375502 0.22247368317 -0.63566439757 1.4153845212 0.33220041433
          -0.72366888542 1.4292555272 0.43934828106 -0.81155106931 1.4455860223 0.54569527876
          -0.89853824837 1.4615170567 0.6545146394 -0.98833261802 1.4769180193 0.76152398745
          -0.20496224084 1.1138656729 -0.19081688115 -0.29551798304 1.131331809 -0.077699869064
          -0.38389402892 1.1453631452 0.028158322889 -0.47225419328 1.1628619884 0.13481079989
          -0.56009808159 1.1777654914 0.24283574146 -0.65210483814 1.1933200132 0.35213258696
          -0.73814206096 1.2115806529 0.45858055146 -0.82607739746 1.2255505935 0.56528366848
          -0.91598243456 1.2415928869 0.6710466453 -0.99739094214 1.2594798721 0.78390777097
          -0.22580226202 0.89586591599 -0.15772567016 -0.31048439762 0.91002911099 -0.058560249546
          -0.3985336811 0.92728019524 0.047372306563 -0.48958683697 0.94411365605 0.15141135272
          -0.57285754389 0.95943055653 0.26406950609 -0.66403870306 0.97356084914 0.36794399014
          -0.75373567589 0.99122717832 0.47773935816 -0.84071592329 1.0075175092 0.58676295662
          -0.9303411322 1.0221954349 0.6925726807 -1.0186374532 1.0397431202 0.79847877591
          -0.23519888556 0.66999309628 -0.14394808381 -0.32730732599 0.69361091115 -0.034457626858
          -0.41211257466 0.70601554195 0.073260530377 -0.49881918959 0.72178415752 0.17667310284
          -0.58687285128 0.73954439399 0.28279413381 -0.68241691311 0.75239880105 0.39532101752
          -0.76781693485 0.76941182689 0.49742488807 -0.85640996898 0.78639042325 0.60341879417
          -0.94495646325 0.80472524214 0.71196717586 -1.0325216954 0.82525251145 0.81862027276
          -0.25114345049 0.45163488107 -0.11745948232 -0.33322710093 0.45898563183 -0.018679214181
          -0.42845080651 0.48714933474 0.090657030152 -0.51540243117 0.50385161779 0.1975683864
          -0.59765710665 0.51614484494 0.3110249321 -0.69556492155 0.52548848077 0.41820960228
          -0.78496584272 0.55292994627 0.52041337978 -0.87447739491 0.57075476451 0.62954586278
          -0.95059622566 0.57925198475 0.73746723312 -1.0481712517 0.60127577855 0.84138820226
          -0.0097992280048 2.4147397886 -0.43063452951 -0.10226360948 2.4267526275 -0.32667651303
          -0.18575317376 2.4457642007 -0.21741990313 -0.2758636175 2.4599006162 -0.11058886393
          -0.36323034938 2.4780196135 -0.0014336165438 -0.45014840881 2.4910446072 0.10492702222
          -0.53931869839 2.5090178148 0.2114788642 -0.62217295925 2.5242938449 0.31981403375
          -0.71291947315 2.5358965637 0.43105408503 -0.79570764947 2.5481249097 0.53744871814
          -0.026569617635 2.1949143337 -0.41392769554 -0.11432229501 2.2090476853 -0.30552912635
          -0.2030706246 2.2259465637 -0.19926847637 -0.28894639509 2.2405235498 -0.090485314414
          -0.37814312265 2.2569053189 0.016014232656 -0.46643270501 2.2722925749 0.12381630725
          -0.55366856716 2.2857094643 0.22854003781 -0.64258706472 2.3042530499 0.33751213561
          -0.73138047702 2.3191277829 0.44475330912 -0.82257570304 2.3385261877 0.5488347594
          -0.041912621621 1.9751508572 -0.39486713829 -0.12893048813 1.9892730026 -0.28783530053
          -0.21685229962 2.0057560206 -0.18003694659 -0.30589750958 2.0214472143 -0.072703761689
          -0.39306488607 2.0381874051 0.03391748219 -0.48059316866 2.053325916 0.14280305167
          -0.57063317267 2.0692301735 0.24989448487 -0.65749278027 2.0843360669 0.35694037974
          -0.74533202932 2.1010944615 0.46383562117 -0.83112593539 2.1170512691 0.57157091351
          -0.056569575467 1.7558492278 -0.37468516663 -0.14350405186 1.7706460204 -0.26881241035
          -0.23212358859 1.7867632108 -0.16194494965 -0.31991101205 1.8016568936 -0.053546129388
          -0.40763894789 1.8183369406 0.053756705751 -0.49582926661 1.8336702816 0.16164328612
          -0.58443780278 1.8489700018 0.26969773885 -0.67200755286 1.8656923327 0.37719574285
          -0.75933628752 1.8808037102 0.48418206929 -0.84775546467 1.896529222 0.59208127251
          -0.072561777338 1.5326316063 -0.35599810509 -0.15820283132 1.5508508637 -0.24920138003
          -0.24587039261 1.5662466536 -0.14252604629 -0.33390513338 1.5824353619 -0.035102020073
          -0.4226406017 1.5980676116 0.073239126986 -0.51117273056 1.6137817222 0.18049185626
          -0.60001616276 1.6297649611 0.28863507614 -0.68790141478 1.6461305068 0.39531279461
          -0.77621874987 1.6617846358 0.50319807842 -0.86490418507 1.6771137083 0.61198698508
          -0.0855278338 1.3138609906 -0.33628036209 -0.17304248083 1.3312000694 -0.22912942008
          -0.26199383601 1.3467267389 -0.12258897856 -0.34790150712 1.3617640042 -0.015359215778
          -0.43655505188 1.3801657695 0.092723334671 -0.52681920002 1.3950532215 0.19816908508
          -0.61540700138 1.4102363795 0.30753743741 -0.70328938291 1.4261376054 0.41574922854
          -0.79173062346 1.4422382769 0.52218609405 -0.88016496786 1.4599556211 0.63016977563
          -0.10039086257 1.094815948 -0.31859934279 -0.18792457349 1.1110070526 -0.21010876892
          -0.27568587661 1.128472288 -0.10420850491 -0.36502023351 1.1435533465 0.0033773192477
          -0.45140018749 1.1607393377 0.11159166569 -0.54273637499 1.1751045392 0.21914514381
          -0.632331003 1.1922785672 0.3272110725 -0.71788837349 1.2089822368 0.43579666283
          -0.80716966849 1.2239385511 0.54182847216 -0.89255496287 1.2404773793 0.6510897725
          -0.11398693422 0.87496378479 -0.29790805962 -0.20402865898 0.89054171295 -0.18991112422
          -0.2909150236 0.90797800801 -0.084485685544 -0.37945232838 0.92336502251 0.023144142713
          -0.46692142199 0.94038139984 0.13192508193 -0.55910206256 0.95528437423 0.2372229295
          -0.64682547145 0.971218025 0.34781079197 -0.73524226642 0.98791425335 0.45409503007
          -0.82334010979 1.0034220152 0.56097287704 -0.9088604178 1.0190607123 0.67058928402
          -0.13298631626 0.65451905569 -0.27338111175 -0.21759217877 0.67133814071 -0.17022545312
          -0.30464428035 0.68785002343 -0.061906680907 -0.39274891492 0.70547846328 0.044205382004
          -0.48069103396 0.72205886295 0.15020237429 -0.57570482777 0.73651563802 0.26183624422
          -0.66196699168 0.75310607298 0.36444098269 -0.74910750475 0.76851471636 0.47385716666
          -0.83705187212 0.78565539049 0.58187455555 -0.92758284435 0.80049630067 0.68798888706
          -0.14670999321 0.43788564757 -0.25880777124 -0.23371946174 0.45146323048 -0.14959740241
          -0.32252471721 0.47180031841 -0.040147670819 -0.40918672479 0.486782671 0.06827945967
          -0.49815376927 0.50315895794 0.16973924315 -0.59279951546 0.5149536083 0.28779235844
          -0.67879335442 0.53290529383 0.38740143266 -0.76650095314 0.55220480158 0.49517815359
          -0.85171323251 0.56677171744 0.60364024387 -0.93645095468 0.58846432711 0.71425686713
          0.10073084941 2.3961392759 -0.56594165634 0.006634178888 2.4086009932 -0.45590447203
          -0.080848222743 2.4265074072 -0.34826006951 -0.16577306598 2.4402185293 -0.23978493133
          -0.25603850987 2.4584173693 -0.13422976134 -0.34345142506 2.4739239171 -0.02652649037
          -0.42941461847 2.488791256 0.08097962327 -0.51896237801 2.5046850799 0.18954118078
          -0.60336554994 2.5209783624 0.29781433123 -0.70017262189 2.5370669813 0.40714689601
          0.082183070888 2.1762072404 -0.54471996856 -0.0065652986266 2.1914358381 -0.4376802108
          -0.094477140242 2.2072989356 -0.33129600493 -0.18277087108 2.2235277732 -0.22216173923
          -0.27021769343 2.2384384269 -0.11501328838 -0.35967440122 2.2538366682 -0.0086835639909
          -0.44622884788 2.2699845168 0.098507394355 -0.53410315268 2.2842991811 0.20714339402
          -0.62109129368 2.2998794617 0.31496764037 -0.71060030053 2.31375885 0.42395652719
          0.06621277006 1.9546453463 -0.5237302636 -0.022042680565 1.9726504341 -0.41967408515
          -0.10948112066 1.9876690463 -0.31192153342 -0.19737296217 2.0028888173 -0.20387179305
          -0.28550547204 2.0184543875 -0.096705133651 -0.3732199044 2.033666774 0.011765056582
          -0.46161960287 2.0492929593 0.11861048405 -0.54969222141 2.0659115889 0.2258329613
          -0.63797186666 2.0820925848 0.33398743832 -0.72457645803 2.0958633496 0.44087347912
          0.050474318106 1.7366815789 -0.50681746753 -0.036584501876 1.7528061125 -0.399589551
          -0.12465423952 1.7673225675 -0.29281934982 -0.2124947106 1.7838397208 -0.18533776693
          -0.30055630267 1.7993984708 -0.077498046485 -0.38880528538 1.8147407708 0.030173487027
          -0.47775747223 1.8299642092 0.13805458398 -0.56521893607 1.845286642 0.24572268564
          -0.65394929756 1.8621227839 0.35247104806 -0.7415897029 1.8780269784 0.45864941899
          0.036330796443 1.5164502596 -0.48807183481 -0.05207268468 1.5329566103 -0.38159635948
          -0.13896247034 1.5474735943 -0.27382848815 -0.22732547731 1.5641471661 -0.16551264522
          -0.31561259457 1.5801581867 -0.058770261754 -0.4042600587 1.5945186335 0.048862333277
          -0.49286773285 1.610715203 0.15618403113 -0.5799112674 1.6256620981 0.26441126976
          -0.67021915825 1.6434291959 0.3723103339 -0.75650754604 1.6581206826 0.47948655561
          0.020884399405 1.2971215379 -0.46807137076 -0.067295957425 1.313548996 -0.36311354017
          -0.15382120507 1.3287506063 -0.25486923874 -0.24168078977 1.3445148226 -0.14699083264
          -0.3286334709 1.3599343673 -0.038333320598 -0.41947718078 1.3752654204 0.068605227186
          -0.5072547783 1.3910660325 0.17517084099 -0.59559968584 1.4067969434 0.28245800634
          -0.68502809912 1.4246377832 0.39157237785 -0.77193051782 1.4389523556 0.49751956665
          0.0073152511703 1.0772831213 -0.45011481938 -0.08162179626 1.09324014 -0.34177902369
          -0.16896021043 1.1091206944 -0.23496856752 -0.25593886008 1.12424979 -0.12817814609
          -0.34275809383 1.1422305355 -0.021088531243 -0.43449123231 1.1569297938 0.086975472611
          -0.52322471127 1.1716789732 0.19559502819 -0.61132540841 1.1880613092 0.3031454149
          -0.6981493323 1.2038653901 0.41174355398 -0.78671991419 1.2221870774 0.51881148313
          -0.0071794848591 0.85535486407 -0.43059417606 -0.095760938367 0.87286689729 -0.32284728476
          -0.17984603769 0.89132759619 -0.21528445024 -0.27100166966 0.90646202362 -0.10804953568
          -0.35898717789 0.92263450694 -0.0011477353901 -0.45132272943 0.93669818459 0.10885889647
          -0.53881221573 0.95346006919 0.21457155946 -0.62519335964 0.97004798142 0.32056701819
          -0.71429423842 0.98487103572 0.43070829507 -0.80138716179 1.0016407376 0.53740612277
          -0.022078190683 0.6370394631 -0.40987146809 -0.10983024977 0.65388738275 -0.30344457973
          -0.19679202666 0.66876843801 -0.1938901878 -0.28554163039 0.68692905564 -0.088556544639
          -0.37187658581 0.70237450049 0.019579463779 -0.46742353853 0.71767336957 0.12717576043
          -0.55473656831 0.73347461006 0.23559901949 -0.64157442347 0.74852827593 0.34244161336
          -0.72953463877 0.76559795833 0.44966940926 -0.81773774389 0.78293036993 0.55779056124
          -0.03615683113 0.4183800955 -0.39131067032 -0.12502050661 0.43422964058 -0.28196216716
          -0.21141987352 0.44914770819 -0.1722595186 -0.29956114549 0.4695790494 -0.065362345856
          -0.38899064885 0.48502344147 0.040584683859 -0.4847548779 0.49752938143 0.14837262193
          -0.57110635024 0.51466136086 0.25212875193 -0.65798777734 0.52816758897 0.35993106848
          -0.74518683863 0.54698725684 0.47124499925 -0.83407789166 0.56562920131 0.57827557016
          0.2053097997 2.372757631 -0.7050748967 0.11673044554 2.3923955665 -0.58849695912
          0.028694889257 2.4101671975 -0.47968027122 -0.059357981488 2.423677425 -0.37281929235
          -0.1494411912 2.4416257319 -0.2654330472 -0.23593068063 2.4545306118 -0.15789639811
          -0.3220453326 2.4699532684 -0.0504278397 -0.41111655971 2.4867960997 0.056109166654
          -0.49763732113 2.4997235516 0.16483142203 -0.58911747266 2.5145285773 0.27625517016
          0.19099206902 2.1619145137 -0.67558124297 0.1016317272 2.1725117244 -0.5695494938
          0.012894874694 2.1888561957 -0.46210380331 -0.074842556868 2.2047597479 -0.35428368347
          -0.16261178437 2.2199439791 -0.24657031752 -0.25056803684 2.2355354198 -0.13901377253
          -0.33802661309 2.2504949815 -0.030859440451 -0.42649167461 2.2663313973 0.076251165152
          -0.5154988216 2.2806739189 0.18372113801 -0.60092161264 2.2990247338 0.28782962568
          0.17504797344 1.9383194102 -0.65744821559 0.085321986656 1.955268505 -0.55042411539
          -0.0013116971921 1.968633208 -0.44218480473 -0.089622559473 1.9848344462 -0.33565187288
          -0.17777707112 2.0005195139 -0.22765716758 -0.26575541326 2.0157489419 -0.12021501639
          -0.35378976425 2.0309101212 -0.012422276416 -0.44253155995 2.0460149033 0.09394212949
          -0.53057984192 2.0634018449 0.20252535507 -0.61767313597 2.0771339382 0.30762611705
          0.15954210276 1.7176416663 -0.63962518442 0.071913580741 1.7353355294 -0.53283803517
          -0.016678608407 1.7497349962 -0.42395597478 -0.10485556562 1.7651642717 -0.31672343602
          -0.19283800735 1.7810487882 -0.209084018 -0.28099455248 1.7963980211 -0.10134137726
          -0.36937600461 1.811581176 0.0060832038037 -0.45784653287 1.8270333753 0.1133650142
          -0.54483280312 1.8444660423 0.22070082647 -0.63255964942 1.8589308525 0.32789281291
          0.14529781887 1.499204302 -0.62140026163 0.055958857361 1.5142456998 -0.51266575168
          -0.031288837918 1.5299870313 -0.40524616416 -0.11959604248 1.5449322821 -0.2964900168
          -0.20780502956 1.5610466755 -0.19014892104 -0.29652804527 1.5762020198 -0.082598307115
          -0.38484555297 1.5920078759 0.024937124282 -0.47215532797 1.607189028 0.13231195437
          -0.56101312817 1.6226770738 0.24035177673 -0.64843188666 1.6389101358 0.3471024802
          0.129346005 1.2787648349 -0.60155686829 0.04106462169 1.294424133 -0.49431936545
          -0.04632499933 1.3104423545 -0.38661522845 -0.13440936835 1.3262241238 -0.27964705152
          -0.22192029207 1.3416804972 -0.17059187117 -0.31265099956 1.3574075389 -0.062740116824
          -0.39950571108 1.3727301824 0.044535226649 -0.48841561207 1.3879014651 0.15105908139
          -0.5760799509 1.4032429416 0.25850682014 -0.66399389508 1.4195923191 0.36669314281