<?xml version="1.0"?>
<VTKFile type="UnstructuredGrid" version="0.1" byte_order="LittleEndian" compressor="vtkZLibDataCompressor">
  <UnstructuredGrid>
    <FieldData>
      <DataArray type="Float64" Name="TIME" NumberOfTuples="1" format="ascii" RangeMin="0.37167475909" RangeMax="0.37167475909">
        0.37167475909
      </DataArray>
    </FieldData>
    <Piece NumberOfPoints="1000" NumberOfCells="0">
      <PointData>
        <DataArray type="Float64" Name="Damage" format="ascii" RangeMin="0" RangeMax="0.49719101124">
          0 0 0 0 0 0
          0 0 0 0 0 0.027932960894
          0 0 0 0 0 0
          0.027932960894 0 0 0.055084745763 0.071428571429 0.040345821326
          0.014164305949 0.012987012987 0.040345821326 0.071428571429 0.055084745763 0
          0 0.067669172932 0.11239193084 0.1074168798 0.037688442211 0.034562211982
          0.1074168798 0.11239193084 0.067669172932 0 0 0.074349442379
          0.16147308782 0.16834170854 0.12376237624 0.11286681716 0.16834170854 0.16147308782
          0.074349442379 0 0 0.084459459459 0.2 0.25806451613
          0.33860045147 0.39211618257 0.25806451613 0.2 0.084459459459 0
          0 0.093984962406 0.25360230548 0.36061381074 0.41959798995 0.46774193548
          0.36061381074 0.25360230548 0.093984962406 0 0 0.10593220339
          0.31493506494 0.40057636888 0.4447592068 0.49090909091 0.40057636888 0.31493506494
          0.10593220339 0 0 0.16759776536 0.3686440678 0.43984962406
          0.44609665428 0.49662162162 0.43984962406 0.3686440678 0.16759776536 0
          0 0.1677852349 0.36734693878 0.43891402715 0.44642857143 0.49593495935
          0.43891402715 0.36734693878 0.1677852349 0 0 0
          0 0 0 0 0 0
          0 0 0 0.027906976744 0 0
          0 0 0 0 0.027906976744 0
          0 0.056338028169 0.072776280323 0.040669856459 0.014117647059 0.012931034483
          0.040669856459 0.072776280323 0.056338028169 0 0 0.06875
          0.11483253589 0.10828025478 0.0375782881 0.034416826004 0.10828025478 0.11483253589
          0.06875 0 0 0.074303405573 0.16235294118 0.16910229645
          0.12371134021 0.11257035647 0.16910229645 0.16235294118 0.074303405573 0
          0 0.084269662921 0.20043103448 0.25812619503 0.33771106942 0.39242685026
          0.25812619503 0.20043103448 0.084269662921 0 0 0.09375
          0.25358851675 0.36093418259 0.41962421712 0.46845124283 0.36093418259 0.25358851675
          0.09375 0 0 0.10563380282 0.3153638814 0.4019138756
          0.44470588235 0.49137931034 0.4019138756 0.3153638814 0.10563380282 0
          0 0.16744186047 0.36971830986 0.440625 0.44582043344 0.49719101124
          0.440625 0.36971830986 0.16744186047 0 0 0.16759776536
          0.3686440678 0.43984962406 0.44609665428 0.49662162162 0.43984962406 0.3686440678
          0.16759776536 0 0 0 0 0
          0 0 0 0 0 0
          0 0.024647887324 0 0 0 0
          0 0 0.024647887324 0 0 0.051212938005
          0.06875 0.038817005545 0.012635379061 0.011666666667 0.038817005545 0.06875
          0.051212938005 0 0 0.064593301435 0.10905730129 0.10491803279
          0.036858974359 0.034023668639 0.10491803279 0.10905730129 0.064593301435 0
          0 0.070588235294 0.15523465704 0.16506410256 0.12283464567 0.11271676301
          0.16506410256 0.15523465704 0.070588235294 0 0 0.081896551724
          0.19333333333 0.25443786982 0.33959537572 0.38985313752 0.25443786982 0.19333333333
          0.081896551724 0 0 0.093301435407 0.24768946396 0.35573770492
          0.41987179487 0.46449704142 0.35573770492 0.24768946396 0.093301435407 0
          0 0.10781671159 0.30833333333 0.39556377079 0.4440433213 0.48666666667
          0.39556377079 0.30833333333 0.10781671159 0 0 0.16197183099
          0.35579514825 0.43062200957 0.44470588235 0.49137931034 0.43062200957 0.35579514825
          0.16197183099 0 0 0.16101694915 0.3538961039 0.42939481268
          0.4447592068 0.49090909091 0.42939481268 0.3538961039 0.16101694915 0
          0 0 0 0 0 0
          0 0 0 0 0 0.025
          0 0 0 0 0 0
          0.025 0 0 0.05023923445 0.068391866913 0.039344262295
          0.012820512821 0.011834319527 0.039344262295 0.068391866913 0.05023923445 0
          0 0.063694267516 0.10819672131 0.10465116279 0.036984352774 0.034120734908
          0.10465116279 0.10819672131 0.063694267516 0 0 0.070981210856
          0.15544871795 0.16500711238 0.12290502793 0.11282051282 0.16500711238 0.15544871795
          0.070981210856 0 0 0.082217973231 0.19378698225 0.25459317585
          0.33974358974 0.38981042654 0.25459317585 0.19378698225 0.082217973231 0
          0 0.093418259023 0.24918032787 0.35610465116 0.41963015647 0.46456692913
          0.35610465116 0.24918032787 0.093418259023 0 0 0.10765550239
          0.30868761553 0.39508196721 0.44391025641 0.48668639053 0.39508196721 0.30868761553
          0.10765550239 0 0 0.1625 0.35645933014 0.43099787686
          0.44467640919 0.4913957935 0.43099787686 0.35645933014 0.1625 0
          0 0.16165413534 0.35446685879 0.42966751918 0.44472361809 0.49078341014
          0.42966751918 0.35446685879 0.16165413534 0 0 0
          0 0 0 0 0 0
          0 0 0 0.02786377709 0 0
          0 0 0 0 0.02786377709 0
          0 0.054117647059 0.070397111913 0.040064102564 0.014173228346 0.013005780347
          0.040064102564 0.070397111913 0.054117647059 0 0 0.066805845511
          0.11057692308 0.106685633 0.037709497207 0.034615384615 0.106685633 0.11057692308
          0.066805845511 0 0 0.074226804124 0.16062992126 0.16759776536
          0.12362637363 0.11292346299 0.16759776536 0.16062992126 0.074226804124 0
          0 0.084427767355 0.19942196532 0.25769230769 0.33877038896 0.39145496536
          0.25769230769 0.19942196532 0.084427767355 0 0 0.093945720251
          0.25320512821 0.35988620199 0.41899441341 0.46666666667 0.35988620199 0.25320512821
          0.093945720251 0 0 0.10588235294 0.31407942238 0.39903846154
          0.44409448819 0.48988439306 0.39903846154 0.31407942238 0.10588235294 0
          0 0.16718266254 0.36705882353 0.43841336117 0.44536082474 0.49530956848
          0.43841336117 0.36705882353 0.16718266254 0 0 0.16728624535
          0.36543909348 0.43718592965 0.44554455446 0.49435665914 0.43718592965 0.36543909348
          0.16728624535 0 0 0 0 0
          0 0 0 0 0 0
          0 0.025280898876 0 0 0 0
          0 0 0.025280898876 0 0 0.049568965517
          0.066666666667 0.038461538462 0.013005780347 0.012016021362 0.038461538462 0.066666666667
          0.049568965517 0 0 0.06309751434 0.1050295858 0.10367454068
          0.037179487179 0.034360189573 0.10367454068 0.1050295858 0.06309751434 0
          0 0.071294559099 0.15462427746 0.1641025641 0.12296110414 0.11316397229
          0.1641025641 0.15462427746 0.071294559099 0 0 0.082616179002
          0.19359145527 0.25473933649 0.34064665127 0.38930481283 0.25473933649 0.19359145527
          0.082616179002 0 0 0.093690248566 0.24852071006 0.35564304462
          0.41923076923 0.46327014218 0.35564304462 0.24852071006 0.093690248566 0
          0 0.10775862069 0.30833333333 0.39349112426 0.4436416185 0.48598130841
          0.39349112426 0.30833333333 0.10775862069 0 0 0.16292134831
          0.35560344828 0.43021032505 0.44465290807 0.49053356282 0.43021032505 0.35560344828
          0.16292134831 0 0 0.16216216216 0.35324675325 0.42857142857
          0.44469525959 0.48962655602 0.42857142857 0.35324675325 0.16216216216 0
          0 0 0 0 0 0
          0 0 0 0 0 0.025
          0 0 0 0 0 0
          0.025 0 0 0.05023923445 0.068391866913 0.039344262295
          0.012820512821 0.011834319527 0.039344262295 0.068391866913 0.05023923445 0
          0 0.063694267516 0.10819672131 0.10465116279 0.036984352774 0.034120734908
          0.10465116279 0.10819672131 0.063694267516 0 0 0.070981210856
          0.15544871795 0.16500711238 0.12290502793 0.11282051282 0.16500711238 0.15544871795
          0.070981210856 0 0 0.082217973231 0.19378698225 0.25459317585
          0.33974358974 0.38981042654 0.25459317585 0.19378698225 0.082217973231 0
          0 0.093418259023 0.24918032787 0.35610465116 0.41963015647 0.46456692913
          0.35610465116 0.24918032787 0.093418259023 0 0 0.10765550239
          0.30868761553 0.39508196721 0.44391025641 0.48668639053 0.39508196721 0.30868761553
          0.10765550239 0 0 0.1625 0.35645933014 0.43099787686
          0.44467640919 0.4913957935 0.43099787686 0.35645933014 0.1625 0
          0 0.16165413534 0.35446685879 0.42966751918 0.44472361809 0.49078341014
          0.42966751918 0.35446685879 0.16165413534 0 0 0
          0 0 0 0 0 0
          0 0 0 0.024647887324 0 0
          0 0 0 0 0.024647887324 0
          0 0.051212938005 0.06875 0.038817005545 0.012635379061 0.011666666667
          0.038817005545 0.06875 0.051212938005 0 0 0.064593301435
          0.10905730129 0.10491803279 0.036858974359 0.034023668639 0.10491803279 0.10905730129
          0.064593301435 0 0 0.070588235294 0.15523465704 0.16506410256
          0.12283464567 0.11271676301 0.16506410256 0.15523465704 0.070588235294 0
          0 0.081896551724 0.19333333333 0.25443786982 0.33959537572 0.38985313752
          0.25443786982 0.19333333333 0.081896551724 0 0 0.093301435407
          0.24768946396 0.35573770492 0.41987179487 0.46449704142 0.35573770492 0.24768946396
          0.093301435407 0 0 0.10781671159 0.30833333333 0.39556377079
          0.4440433213 0.48666666667 0.39556377079 0.30833333333 0.10781671159 0
          0 0.16197183099 0.35579514825 0.43062200957 0.44470588235 0.49137931034
          0.43062200957 0.35579514825 0.16197183099 0 0 0.16101694915
          0.3538961039 0.42939481268 0.4447592068 0.49090909091 0.42939481268 0.3538961039
          0.16101694915 0 0 0 0 0
          0 0 0 0 0 0
          0 0.027906976744 0 0 0 0
          0 0 0.027906976744 0 0 0.056338028169
          0.072776280323 0.040669856459 0.014117647059 0.012931034483 0.040669856459 0.072776280323
          0.056338028169 0 0 0.06875 0.11483253589 0.10828025478
          0.0375782881 0.034416826004 0.10828025478 0.11483253589 0.06875 0
          0 0.074303405573 0.16235294118 0.16910229645 0.12371134021 0.11257035647
          0.16910229645 0.16235294118 0.074303405573 0 0 0.084269662921
          0.20043103448 0.25812619503 0.33771106942 0.39242685026 0.25812619503 0.20043103448
          0.084269662921 0 0 0.09375 0.25358851675 0.36093418259
          0.41962421712 0.46845124283 0.36093418259 0.25358851675 0.09375 0
          0 0.10563380282 0.3153638814 0.4019138756 0.44470588235 0.49137931034
          0.4019138756 0.3153638814 0.10563380282 0 0 0.16744186047
          0.36971830986 0.440625 0.44582043344 0.49719101124 0.440625 0.36971830986
          0.16744186047 0 0 0.16759776536 0.3686440678 0.43984962406
          0.44609665428 0.49662162162 0.43984962406 0.3686440678 0.16759776536 0
          0 0 0 0 0 0
          0 0 0 0 0 0.027932960894
          0 0 0 0 0 0
          0.027932960894 0 0 0.055084745763 0.071428571429 0.040345821326
          0.014164305949 0.012987012987 0.040345821326 0.071428571429 0.055084745763 0
          0 0.067669172932 0.11239193084 0.1074168798 0.037688442211 0.034562211982
          0.1074168798 0.11239193084 0.067669172932 0 0 0.074349442379
          0.16147308782 0.16834170854 0.12376237624 0.11286681716 0.16834170854 0.16147308782
          0.074349442379 0 0 0.084459459459 0.2 0.25806451613
          0.33860045147 0.39211618257 0.25806451613 0.2 0.084459459459 0
          0 0.093984962406 0.25360230548 0.36061381074 0.41959798995 0.46774193548
          0.36061381074 0.25360230548 0.093984962406 0 0 0.10593220339
          0.31493506494 0.40057636888 0.4447592068 0.49090909091 0.40057636888 0.31493506494
          0.10593220339 0 0 0.16759776536 0.3686440678 0.43984962406
          0.44609665428 0.49662162162 0.43984962406 0.3686440678 0.16759776536 0
          0 0.1677852349 0.36734693878 0.43891402715 0.44642857143 0.49593495935
          0.43891402715 0.36734693878 0.1677852349 0
        </DataArray>
        <DataArray type="Float64" Name="Displacement" NumberOfComponents="3" format="ascii" RangeMin="0.45353717124" RangeMax="0.47488918034">
          -0.021515138076 0.46208395151 -0.046183773137 -0.016780835924 0.45767514396 -0.042480521435
          -0.018610790227 0.45802045373 -0.042778243444 -0.017672091558 0.457123642 -0.04372892221
          -0.017467113979 0.45490550157 -0.042432799004 -0.017055777953 0.45470925137 -0.043144453981
          -0.016814743245 0.45449300912 -0.043533190475 -0.015973396282 0.45380260778 -0.04244332628
          -0.017635563832 0.45189586748 -0.042670595856 -0.01277573947 0.45474593553 -0.046087369816
          -0.018501279077 0.45938826187 -0.042995979534 -0.016808029464 0.46037527607 -0.04539810622
          -0.017182821589 0.45864761957 -0.044958821705 -0.01596533428 0.45710153589 -0.045532776454
          -0.016341137109 0.45601157075 -0.04470879421 -0.016854229368 0.45518031663 -0.044832241789
          -0.017026791652 0.45433146879 -0.045174479672 -0.015779595008 0.45499949099 -0.045236295925
          -0.016117683184 0.45475308097 -0.045303318036 -0.014651796018 0.45189269261 -0.043049976345
          -0.016053023341 0.46136654446 -0.046586314787 -0.016366689424 0.45963166226 -0.044904608269
          -0.014852599357 0.45696362144 -0.045878762104 -0.015906851005 0.45697482816 -0.046175833797
          -0.015605975815 0.45680246992 -0.046724641855 -0.015303389252 0.45492208878 -0.045788374383
          -0.015456718856 0.45470813049 -0.046072591914 -0.016536563818 0.45283771482 -0.045792045015
          -0.014735697943 0.4537895775 -0.044788806936 -0.014964632525 0.45390909104 -0.046060028123
          -0.014232629194 0.46046776258 -0.048459897429 -0.015983712054 0.45763891722 -0.046078337876
          -0.015505731745 0.45808601591 -0.046945501815 -0.01426794162 0.45717424832 -0.047337180835
          -0.014923681682 0.45630319169 -0.0475384512 -0.015136354953 0.4557051259 -0.047867528555
          -0.015500933631 0.45499481217 -0.047599306099 -0.014196977366 0.45387545068 -0.046817574516
          -0.013438690476 0.45181579595 -0.046034104469 -0.01517687426 0.45308742059 -0.047977343733
          -0.015111097448 0.4606147843 -0.047650158154 -0.013631482326 0.45835288329 -0.047998254194
          -0.013879192989 0.45797825084 -0.048571599156 -0.013898950763 0.45660330267 -0.048279035029
          -0.013226791616 0.45723914732 -0.047767483656 -0.014101513583 0.45556600668 -0.047745092611
          -0.013984429274 0.45412892801 -0.048126130258 -0.014123923421 0.45377682254 -0.048387262191
          -0.014230850538 0.45265007696 -0.047791927297 -0.012792862385 0.45312788313 -0.047312825723
          -0.01282881416 0.46141514296 -0.04925985116 -0.013154844673 0.45876218035 -0.049617801627
          -0.011875601929 0.4587149471 -0.049159186721 -0.012549389649 0.4569960565 -0.049567810259
          -0.012663728895 0.45642961074 -0.050452875846 -0.013763374869 0.45563365949 -0.050207581116
          -0.013657594423 0.45448553397 -0.049346260485 -0.014483894258 0.45453498569 -0.049015050324
          -0.013123820912 0.45307174118 -0.049319826924 -0.013350122494 0.4540008506 -0.048986285763
          -0.012216650088 0.45949220521 -0.049864556714 -0.013552523846 0.4588507323 -0.049495723493
          -0.011467430361 0.4585130673 -0.050030811356 -0.0110289704 0.4562502413 -0.051755072464
          -0.012005447551 0.45671900544 -0.049600174462 -0.012904215397 0.45585957933 -0.049348005199
          -0.013610840534 0.4537406422 -0.051802429272 -0.01321543445 0.45431276929 -0.049929987394
          -0.011087778176 0.45305303545 -0.049397291013 -0.012469895242 0.45219880645 -0.049698475415
          -0.010848800747 0.45905727203 -0.051622279541 -0.0091237082304 0.45907082886 -0.052020155102
          -0.0085008340676 0.45798603977 -0.052310069669 -0.010188826216 0.45669055721 -0.051599044048
          -0.0095405190573 0.45646996428 -0.049690999333 -0.013531517387 0.45564849452 -0.049702483535
          -0.013133529037 0.45420416286 -0.051509062256 -0.014761547504 0.45391376534 -0.052279941927
          -0.01392421572 0.45347570698 -0.051912751736 -0.012127484793 0.45161000248 -0.051423528877
          -0.0098744677399 0.46123794804 -0.052608838121 -0.011902295619 0.45926996808 -0.052028849065
          -0.011152039623 0.45795901699 -0.052813729952 -0.010517560325 0.45404229174 -0.055778835388
          -0.013358848897 0.45437120025 -0.054510507867 -0.0083774490386 0.45375422382 -0.054578139651
          -0.01097306894 0.45143121235 -0.055677363779 -0.010416827843 0.45373198848 -0.052861114927
          -0.0095885341233 0.45387296489 -0.051592935112 -0.011794721112 0.45410726361 -0.052383668694
          -0.0096877085785 0.45745946515 -0.058064148901 -0.0097018823853 0.45575971749 -0.055528601042
          -0.0090919280366 0.46180938163 -0.049744714892 -0.0090884912882 0.46154988072 -0.050227274263
          -0.011640607296 0.45546119789 -0.056736385047 -0.0078661208295 0.45478528371 -0.056693777075
          -0.010756542571 0.45921031464 -0.049963254245 -0.010757745542 0.45791803556 -0.049348604773
          -0.010204463796 0.45002649139 -0.055389454406 -0.010738067888 0.45042321301 -0.058179310225
          -0.018372031931 0.46264493722 -0.043976999936 -0.018335635241 0.46075755545 -0.044083196555
          -0.01801202707 0.45898698849 -0.043917176132 -0.017021153312 0.45804975575 -0.044741666903
          -0.017334259368 0.45716182832 -0.044018157417 -0.017648346336 0.45634327121 -0.043625859159
          -0.017599605936 0.45541064179 -0.044189591852 -0.016582249257 0.45531448809 -0.044071267212
          -0.016141860243 0.45507310956 -0.044101429684 -0.016099602324 0.45527377005 -0.043645710085
          -0.015788424051 0.46010083723 -0.045007266744 -0.016628885807 0.46018948091 -0.045538648842
          -0.016491397035 0.45886862931 -0.045067645906 -0.016344151413 0.45837433958 -0.045330653098
          -0.016551613931 0.45700871368 -0.045045786908 -0.016495137749 0.45691884288 -0.045668684488
          -0.016721347027 0.45569124647 -0.045132222201 -0.016555390267 0.4547637421 -0.044803474964
          -0.016278409539 0.45429771645 -0.04530593808 -0.016924735547 0.45285862947 -0.04483141418
          -0.016590267288 0.46184682824 -0.045144973114 -0.015947145744 0.46042427098 -0.046369367486
          -0.015647860407 0.45932109931 -0.04649186598 -0.015805311895 0.45837498181 -0.046380911194
          -0.015707349187 0.45728366599 -0.046341959786 -0.015673060567 0.45646093697 -0.046295898933
          -0.015541522091 0.45583009468 -0.046296963403 -0.015633339667 0.45521158316 -0.046342276765
          -0.015300319014 0.45476494948 -0.046255294076 -0.014534633606 0.45436751443 -0.044985189743
          -0.015262432121 0.46165917339 -0.047054246693 -0.014631683722 0.45997266184 -0.047187291605
          -0.014694377062 0.45930014562 -0.047564531536 -0.014993410997 0.45780923994 -0.046942098808
          -0.014883798232 0.45703270535 -0.047263548407 -0.014770863646 0.45615091747 -0.047173674673
          -0.014851299581 0.45543862875 -0.047024847782 -0.01499218955 0.45520657567 -0.047439937412
          -0.015038835224 0.45417228551 -0.046985353937 -0.014205703409 0.45432273039 -0.046819887986
          -0.013767282243 0.46002420829 -0.048719989896 -0.013658956764 0.45998119847 -0.048635523199
          -0.01370907153 0.45921673003 -0.048546913512 -0.01389154144 0.45797154206 -0.04864102389
          -0.013919940789 0.45717799804 -0.048314117563 -0.014125063106 0.45634059724 -0.048602367054
          -0.014187459835 0.45555446861 -0.048472746153 -0.014381864662 0.45506786834 -0.048443737661
          -0.01434730882 0.45422868941 -0.048461277251 -0.014292099131 0.45269053602 -0.04837520882
          -0.01299671393 0.4608631081 -0.049428825779 -0.01248466424 0.45990601565 -0.050081000018
          -0.012547563321 0.45925396165 -0.049544617052 -0.012708510893 0.45810180812 -0.04975172577
          -0.012718158331 0.45699821223 -0.049758745342 -0.013513718852 0.45625912163 -0.049737372042
          -0.013923139631 0.45572431576 -0.049659369255 -0.013825283518 0.45514255325 -0.04935241996
          -0.013994002857 0.45408646364 -0.049877358748 -0.013385493979 0.45341061458 -0.049128059009
          -0.011631351126 0.46072151691 -0.050509475935 -0.01165801583 0.45991464526 -0.050776531693
          -0.011793044121 0.45927863267 -0.050453222505 -0.011375391544 0.45804945154 -0.050446802799
          -0.011206935081 0.45700184485 -0.049988350589 -0.01354565455 0.45637978831 -0.050029212567
          -0.01334708305 0.45562258526 -0.05042653371 -0.013033552169 0.45519665115 -0.05037807082
          -0.013123121968 0.45404193002 -0.050562681287 -0.013150877758 0.45343604934 -0.050227023984
          -0.010445671631 0.46143333802 -0.052069137555 -0.0099714288927 0.46031315187 -0.052248502974
          -0.010082812963 0.45922993027 -0.051617741102 -0.011141761839 0.45803259162 -0.051691449224
          -0.010130917026 0.45651832539 -0.051798197427 -0.012929266153 0.45572440092 -0.051702396905
          -0.01200934657 0.45551717989 -0.051647670214 -0.012886403086 0.4551643071 -0.051506587288
          -0.01319951648 0.45455013706 -0.052063060584 -0.012859511161 0.45401971963 -0.051848781705
          -0.010319482598 0.45896993868 -0.053629776263 -0.010263916695 0.45966200765 -0.052910947567
          -0.0089913800027 0.45881463582 -0.053293189272 -0.0087644606425 0.45856820534 -0.052567908513
          -0.0082042383844 0.45629285477 -0.0521027628 -0.013375167894 0.45550801504 -0.052067180083
          -0.012719031077 0.4561568053 -0.052561461124 -0.012490948227 0.45473399406 -0.053239437955
          -0.011261597543 0.45401692746 -0.052863311614 -0.011274033446 0.45175311019 -0.05355432324
          -0.0078970751803 0.46158403121 -0.049281070488 -0.0026664033975 0.46181235005 -0.053490992749
          -0.0088447297797 0.45864466071 -0.054402885213 -0.0073813820052 0.45625717444 -0.055070160103
          -0.0063445986168 0.45538180269 -0.055985470052 -0.013669986024 0.4548270168 -0.055900232482
          -0.012677546551 0.45377269657 -0.054827121233 -0.011165867813 0.45453120062 -0.054188188158
          -0.017336280686 0.45617771667 -0.053442053707 -0.012118113218 0.45447023832 -0.049146482688
          -0.019675061872 0.46421446502 -0.043551739322 -0.019315400771 0.46235876911 -0.044365276261
          -0.017092801309 0.46011907482 -0.044949363271 -0.017268005387 0.45890147985 -0.044026915506
          -0.017323432612 0.45799406449 -0.043625953094 -0.017182832658 0.45776076296 -0.04428473703
          -0.017378221827 0.45650239777 -0.04387040878 -0.017429790876 0.45599651319 -0.044757439818
          -0.015442430755 0.45660661244 -0.044149187673 -0.014925783502 0.45671416221 -0.043420193731
          -0.017425524029 0.46328254662 -0.044947334622 -0.016978821731 0.46106827015 -0.044821300079
          -0.016335624816 0.45924595408 -0.044783950463 -0.016591375896 0.45926815171 -0.045258680514
          -0.016487233485 0.45841707821 -0.04528621182 -0.016459140684 0.45777486722 -0.045382786076
          -0.016503139996 0.45673521686 -0.045208941058 -0.016638672424 0.45509353062 -0.044576292201
          -0.016140092668 0.45524186069 -0.044714421729 -0.015364003653 0.45590643159 -0.044731357951
          -0.015896091728 0.46313008411 -0.047378244712 -0.015803497922 0.46114994137 -0.046213293779
          -0.01582557744 0.46002771813 -0.046256822048 -0.015731601735 0.45906196121 -0.04618820523
          -0.015712847087 0.45812695537 -0.046103881515 -0.015606860464 0.45731905418 -0.046175073211
          -0.015628565871 0.45664476615 -0.046123634326 -0.015638372155 0.45589665788 -0.046148337047
          -0.015405297874 0.45537023104 -0.045967256387 -0.015377451326 0.45572256792 -0.047328163414
          -0.014711016903 0.46243848436 -0.047707835725 -0.014734652621 0.46122739678 -0.0474420247
          -0.014731845852 0.46012352548 -0.047475471622 -0.014906971495 0.45907332239 -0.04727287775
          -0.014908276311 0.4580431709 -0.047306741959 -0.0149106149 0.45719333907 -0.047311850716
          -0.014818163862 0.45659296984 -0.047257014242 -0.014964757132 0.45599501614 -0.047300217332
          -0.015006705838 0.4554259257 -0.047297931474 -0.015039492221 0.45506442802 -0.047581378684
          -0.013746426311 0.46252978968 -0.048632848031 -0.013868311131 0.46130864061 -0.048451288941
          -0.013780073158 0.46018918426 -0.048476944004 -0.013922865902 0.45923229184 -0.048413424617
          -0.013992724773 0.45818221923 -0.048444205394 -0.014050982328 0.45734920367 -0.048372011618
          -0.01420402939 0.45681379417 -0.04836754099 -0.014199001393 0.45603255631 -0.048352834192
          -0.014210200399 0.45552343573 -0.048315135567 -0.014250931865 0.45511709114 -0.048427809136
          -0.012706484909 0.46252152693 -0.049688695626 -0.013154409809 0.46118218729 -0.049472188311
          -0.01311192839 0.46007386216 -0.04947916551 -0.012874314068 0.45916636542 -0.049510437401
          -0.01232483153 0.45822272633 -0.049260266036 -0.014250863554 0.4574701898 -0.049102402649
          -0.013463114923 0.45672921475 -0.04948226173 -0.013605502684 0.45605352931 -0.049434875971
          -0.013398548232 0.45543576706 -0.049376399748 -0.01364917623 0.45519871622 -0.049367550493
          -0.011996494471 0.46231743845 -0.050159531663 -0.011202527611 0.46138034277 -0.050818406108
          -0.011516270103 0.46021819337 -0.050722379702 -0.011632588624 0.45905288315 -0.05050061532
          -0.012118953024 0.45816606543 -0.050609319034 -0.012689009425 0.45751338558 -0.050457122416
          -0.01300011802 0.45655044461 -0.05050176519 -0.013280449018 0.45614390747 -0.050595142205
          -0.013679828714 0.45563362726 -0.050744858087 -0.012665595165 0.45476843897 -0.04987535208
          -0.010278827009 0.4624262847 -0.05181908377 -0.010932838504 0.46091627886 -0.051903556265
          -0.01051596759 0.4603223164 -0.051621636719 -0.010000006756 0.45891947556 -0.051696984643
          -0.010495833574 0.45818647381 -0.051165519237 -0.012708216856 0.45732952734 -0.051233087417
          -0.013149966976 0.45649655794 -0.05170661721 -0.012646016102 0.45618379987 -0.051564868307
          -0.012244183416 0.4552224442 -0.05178668572 -0.012827075448 0.45515782016 -0.051587463352
          -0.010336442154 0.4620749686 -0.051720349834 -0.0097883239029 0.46060209223 -0.052851129121
          -0.0090267469812 0.46010320927 -0.052837886966 -0.0098940779553 0.45854567789 -0.053141886652
          -0.010761795328 0.45866680842 -0.052916372279 -0.01074474293 0.45788782288 -0.05292183623
          -0.011551305439 0.45607214961 -0.053124934793 -0.012401037404 0.45598144479 -0.052735248241
          -0.011768387574 0.4547730153 -0.052722793712 -0.011410401355 0.45484845115 -0.051491463565
          -0.0048709220164 0.46542514714 -0.054755901967 -0.0077396926442 0.46214585288 -0.053818098588
          -0.011833954459 0.4602285235 -0.053497429576 -0.010595224184 0.4602552214 -0.054660936193
          -0.0077144286833 0.45817035711 -0.053377639422 -0.012265188974 0.45731982493 -0.053342834901
          -0.0094027157478 0.45780673419 -0.054577702442 -0.0080743701278 0.45607004704 -0.053409827478
          -0.012300942985 0.45656179073 -0.053714510753 -0.01496996095 0.45826015202 -0.054507724895
          -0.019070241851 0.46468607973 -0.044913695292 -0.018990500929 0.46356549502 -0.045110789449
          -0.018089791025 0.46173547801 -0.044636512327 -0.01728957623 0.46012042831 -0.044279271996
          -0.017437024623 0.45931912776 -0.043857316708 -0.017353874424 0.45853993892 -0.043971156831
          -0.017388046213 0.45762930679 -0.044126181532 -0.016631338692 0.4575744836 -0.044530189837
          -0.015478568439 0.45784704918 -0.044869345322 -0.015479065208 0.45715222638 -0.044763242585
          -0.017456774778 0.46484610545 -0.04526262401 -0.016856174028 0.46257789944 -0.045442632933
          -0.016543473787 0.46114710819 -0.045280769657 -0.016487564203 0.46005692869 -0.04512582164
          -0.016536050583 0.45915784788 -0.04507415547 -0.016500696442 0.45837522375 -0.045061731003
          -0.016460414168 0.45765807376 -0.045091538265 -0.016467085111 0.45702491905 -0.045212663052
          -0.016183143911 0.4567332013 -0.045277250173 -0.015295780732 0.45759116875 -0.04501311106
          -0.01568884921 0.46330317152 -0.046707016771 -0.015477843301 0.46230103531 -0.0465070611
          -0.015763731707 0.46119781093 -0.046312324199 -0.015766111589 0.46017537457 -0.046259357336
          -0.015787474468 0.45921712824 -0.046211821318 -0.015655329188 0.45835111961 -0.046203116005
          -0.015565406669 0.45770433791 -0.046224857932 -0.015647190539 0.45710845253 -0.046259613155
          -0.015908581304 0.45652938411 -0.046339958135 -0.015698071062 0.45587009335 -0.046533183851
          -0.015028336693 0.4640026458 -0.047598416885 -0.014255811325 0.46224386517 -0.047685577502
          -0.014816195659 0.46122309061 -0.047403270946 -0.014864837215 0.4601571532 -0.047306971123
          -0.014933964587 0.45912608803 -0.047299785671 -0.014833658431 0.4583961112 -0.047337720317
          -0.014854066932 0.45770159548 -0.047349548299 -0.014908132958 0.45710709507 -0.047281287343
          -0.015369306119 0.45648322585 -0.047456535765 -0.014745224909 0.45648298993 -0.047350748464
          -0.013784430092 0.46345453207 -0.048768767697 -0.013969915262 0.46229911168 -0.048412702336
          -0.013943550046 0.46132737798 -0.048517743401 -0.013988171036 0.46014385262 -0.048535710773
          -0.014020218482 0.45920787575 -0.048319327708 -0.014032310855 0.45843177269 -0.048361125776
          -0.014114155382 0.45772470593 -0.048491664793 -0.014058214114 0.45714151319 -0.048363124966
          -0.014173328118 0.45650945681 -0.048290223894 -0.014262905687 0.45605203113 -0.048552053917