<?xml version="1.0"?>
<VTKFile type="UnstructuredGrid" version="0.1" byte_order="LittleEndian" compressor="vtkZLibDataCompressor">
  <UnstructuredGrid>
    <FieldData>
      <DataArray type="Float64" Name="TIME" NumberOfTuples="1" format="ascii" RangeMin="0.64018457469" RangeMax="0.64018457469">
        0.64018457469
      </DataArray>
    </FieldData>
    <Piece NumberOfPoints="1000" NumberOfCells="0">
      <PointData>
        <DataArray type="Float64" Name="Damage" format="ascii" RangeMin="0" RangeMax="0.49719101124">
          0 0 0 0 0 0
          0 0 0 0 0 0.027932960894
          0 0 0 0 0 0
          0.027932960894 0 0 0.055084745763 0.071428571429 0.040345821326
          0.014164305949 0.012987012987 0.040345821326 0.071428571429 0.055084745763 0
          0 0.067669172932 0.11239193084 0.1074168798 0.037688442211 0.034562211982
          0.1074168798 0.11239193084 0.067669172932 0 0 0.074349442379
          0.16147308782 0.16834170854 0.12376237624 0.11286681716 0.16834170854 0.16147308782
          0.074349442379 0 0 0.084459459459 0.2 0.25806451613
          0.33860045147 0.39211618257 0.25806451613 0.2 0.084459459459 0
          0 0.093984962406 0.25360230548 0.36061381074 0.41959798995 0.46774193548
          0.36061381074 0.25360230548 0.093984962406 0 0 0.10593220339
          0.31493506494 0.40057636888 0.4447592068 0.49090909091 0.40057636888 0.31493506494
          0.10593220339 0 0 0.16759776536 0.3686440678 0.43984962406
          0.44609665428 0.49662162162 0.43984962406 0.3686440678 0.16759776536 0
          0 0.1677852349 0.36734693878 0.43891402715 0.44642857143 0.49593495935
          0.43891402715 0.36734693878 0.1677852349 0 0 0
          0 0 0 0 0 0
          0 0 0 0.027906976744 0 0
          0 0 0 0 0.027906976744 0
          0 0.056338028169 0.072776280323 0.040669856459 0.014117647059 0.012931034483
          0.040669856459 0.072776280323 0.056338028169 0 0 0.06875
          0.11483253589 0.10828025478 0.0375782881 0.034416826004 0.10828025478 0.11483253589
          0.06875 0 0 0.074303405573 0.16235294118 0.16910229645
          0.12371134021 0.11257035647 0.16910229645 0.16235294118 0.074303405573 0
          0 0.084269662921 0.20043103448 0.25812619503 0.33771106942 0.39242685026
          0.25812619503 0.20043103448 0.084269662921 0 0 0.09375
          0.25358851675 0.36093418259 0.41962421712 0.46845124283 0.36093418259 0.25358851675
          0.09375 0 0 0.10563380282 0.3153638814 0.4019138756
          0.44470588235 0.49137931034 0.4019138756 0.3153638814 0.10563380282 0
          0 0.16744186047 0.36971830986 0.440625 0.44582043344 0.49719101124
          0.440625 0.36971830986 0.16744186047 0 0 0.16759776536
          0.3686440678 0.43984962406 0.44609665428 0.49662162162 0.43984962406 0.3686440678
          0.16759776536 0 0 0 0 0
          0 0 0 0 0 0
          0 0.024647887324 0 0 0 0
          0 0 0.024647887324 0 0 0.051212938005
          0.06875 0.038817005545 0.012635379061 0.011666666667 0.038817005545 0.06875
          0.051212938005 0 0 0.064593301435 0.10905730129 0.10491803279
          0.036858974359 0.034023668639 0.10491803279 0.10905730129 0.064593301435 0
          0 0.070588235294 0.15523465704 0.16506410256 0.12283464567 0.11271676301
          0.16506410256 0.15523465704 0.070588235294 0 0 0.081896551724
          0.19333333333 0.25443786982 0.33959537572 0.38985313752 0.25443786982 0.19333333333
          0.081896551724 0 0 0.093301435407 0.24768946396 0.35573770492
          0.41987179487 0.46449704142 0.35573770492 0.24768946396 0.093301435407 0
          0 0.10781671159 0.30833333333 0.39556377079 0.4440433213 0.48666666667
          0.39556377079 0.30833333333 0.10781671159 0 0 0.16197183099
          0.35579514825 0.43062200957 0.44470588235 0.49137931034 0.43062200957 0.35579514825
          0.16197183099 0 0 0.16101694915 0.3538961039 0.42939481268
          0.4447592068 0.49090909091 0.42939481268 0.3538961039 0.16101694915 0
          0 0 0 0 0 0
          0 0 0 0 0 0.025
          0 0 0 0 0 0
          0.025 0 0 0.05023923445 0.068391866913 0.039344262295
          0.012820512821 0.011834319527 0.039344262295 0.068391866913 0.05023923445 0
          0 0.063694267516 0.10819672131 0.10465116279 0.036984352774 0.034120734908
          0.10465116279 0.10819672131 0.063694267516 0 0 0.070981210856
          0.15544871795 0.16500711238 0.12290502793 0.11282051282 0.16500711238 0.15544871795
          0.070981210856 0 0 0.082217973231 0.19378698225 0.25459317585
          0.33974358974 0.38981042654 0.25459317585 0.19378698225 0.082217973231 0
          0 0.093418259023 0.24918032787 0.35610465116 0.41963015647 0.46456692913
          0.35610465116 0.24918032787 0.093418259023 0 0 0.10765550239
          0.30868761553 0.39508196721 0.44391025641 0.48668639053 0.39508196721 0.30868761553
          0.10765550239 0 0 0.1625 0.35645933014 0.43099787686
          0.44467640919 0.4913957935 0.43099787686 0.35645933014 0.1625 0
          0 0.16165413534 0.35446685879 0.42966751918 0.44472361809 0.49078341014
          0.42966751918 0.35446685879 0.16165413534 0 0 0
          0 0 0 0 0 0
          0 0 0 0.02786377709 0 0
          0 0 0 0 0.02786377709 0
          0 0.054117647059 0.070397111913 0.040064102564 0.014173228346 0.013005780347
          0.040064102564 0.070397111913 0.054117647059 0 0 0.066805845511
          0.11057692308 0.106685633 0.037709497207 0.034615384615 0.106685633 0.11057692308
          0.066805845511 0 0 0.074226804124 0.16062992126 0.16759776536
          0.12362637363 0.11292346299 0.16759776536 0.16062992126 0.074226804124 0
          0 0.084427767355 0.19942196532 0.25769230769 0.33877038896 0.39145496536
          0.25769230769 0.19942196532 0.084427767355 0 0 0.093945720251
          0.25320512821 0.35988620199 0.41899441341 0.46666666667 0.35988620199 0.25320512821
          0.093945720251 0 0 0.10588235294 0.31407942238 0.39903846154
          0.44409448819 0.48988439306 0.39903846154 0.31407942238 0.10588235294 0
          0 0.16718266254 0.36705882353 0.43841336117 0.44536082474 0.49530956848
          0.43841336117 0.36705882353 0.16718266254 0 0 0.16728624535
          0.36543909348 0.43718592965 0.44554455446 0.49435665914 0.43718592965 0.36543909348
          0.16728624535 0 0 0 0 0
          0 0 0 0 0 0
          0 0.025280898876 0 0 0 0
          0 0 0.025280898876 0 0 0.049568965517
          0.066666666667 0.038461538462 0.013005780347 0.012016021362 0.038461538462 0.066666666667
          0.049568965517 0 0 0.06309751434 0.1050295858 0.10367454068
          0.037179487179 0.034360189573 0.10367454068 0.1050295858 0.06309751434 0
          0 0.071294559099 0.15462427746 0.1641025641 0.12296110414 0.11316397229
          0.1641025641 0.15462427746 0.071294559099 0 0 0.082616179002
          0.19359145527 0.25473933649 0.34064665127 0.38930481283 0.25473933649 0.19359145527
          0.082616179002 0 0 0.093690248566 0.24852071006 0.35564304462
          0.41923076923 0.46327014218 0.35564304462 0.24852071006 0.093690248566 0
          0 0.10775862069 0.30833333333 0.39349112426 0.4436416185 0.48598130841
          0.39349112426 0.30833333333 0.10775862069 0 0 0.16292134831
          0.35560344828 0.43021032505 0.44465290807 0.49053356282 0.43021032505 0.35560344828
          0.16292134831 0 0 0.16216216216 0.35324675325 0.42857142857
          0.44469525959 0.48962655602 0.42857142857 0.35324675325 0.16216216216 0
          0 0 0 0 0 0
          0 0 0 0 0 0.025
          0 0 0 0 0 0
          0.025 0 0 0.05023923445 0.068391866913 0.039344262295
          0.012820512821 0.011834319527 0.039344262295 0.068391866913 0.05023923445 0
          0 0.063694267516 0.10819672131 0.10465116279 0.036984352774 0.034120734908
          0.10465116279 0.10819672131 0.063694267516 0 0 0.070981210856
          0.15544871795 0.16500711238 0.12290502793 0.11282051282 0.16500711238 0.15544871795
          0.070981210856 0 0 0.082217973231 0.19378698225 0.25459317585
          0.33974358974 0.38981042654 0.25459317585 0.19378698225 0.082217973231 0
          0 0.093418259023 0.24918032787 0.35610465116 0.41963015647 0.46456692913
          0.35610465116 0.24918032787 0.093418259023 0 0 0.10765550239
          0.30868761553 0.39508196721 0.44391025641 0.48668639053 0.39508196721 0.30868761553
          0.10765550239 0 0 0.1625 0.35645933014 0.43099787686
          0.44467640919 0.4913957935 0.43099787686 0.35645933014 0.1625 0
          0 0.16165413534 0.35446685879 0.42966751918 0.44472361809 0.49078341014
          0.42966751918 0.35446685879 0.16165413534 0 0 0
          0 0 0 0 0 0
          0 0 0 0.024647887324 0 0
          0 0 0 0 0.024647887324 0
          0 0.051212938005 0.06875 0.038817005545 0.012635379061 0.011666666667
          0.038817005545 0.06875 0.051212938005 0 0 0.064593301435
          0.10905730129 0.10491803279 0.036858974359 0.034023668639 0.10491803279 0.10905730129
          0.064593301435 0 0 0.070588235294 0.15523465704 0.16506410256
          0.12283464567 0.11271676301 0.16506410256 0.15523465704 0.070588235294 0
          0 0.081896551724 0.19333333333 0.25443786982 0.33959537572 0.38985313752
          0.25443786982 0.19333333333 0.081896551724 0 0 0.093301435407
          0.24768946396 0.35573770492 0.41987179487 0.46449704142 0.35573770492 0.24768946396
          0.093301435407 0 0 0.10781671159 0.30833333333 0.39556377079
          0.4440433213 0.48666666667 0.39556377079 0.30833333333 0.10781671159 0
          0 0.16197183099 0.35579514825 0.43062200957 0.44470588235 0.49137931034
          0.43062200957 0.35579514825 0.16197183099 0 0 0.16101694915
          0.3538961039 0.42939481268 0.4447592068 0.49090909091 0.42939481268 0.3538961039
          0.16101694915 0 0 0 0 0
          0 0 0 0 0 0
          0 0.027906976744 0 0 0 0
          0 0 0.027906976744 0 0 0.056338028169
          0.072776280323 0.040669856459 0.014117647059 0.012931034483 0.040669856459 0.072776280323
          0.056338028169 0 0 0.06875 0.11483253589 0.10828025478
          0.0375782881 0.034416826004 0.10828025478 0.11483253589 0.06875 0
          0 0.074303405573 0.16235294118 0.16910229645 0.12371134021 0.11257035647
          0.16910229645 0.16235294118 0.074303405573 0 0 0.084269662921
          0.20043103448 0.25812619503 0.33771106942 0.39242685026 0.25812619503 0.20043103448
          0.084269662921 0 0 0.09375 0.25358851675 0.36093418259
          0.41962421712 0.46845124283 0.36093418259 0.25358851675 0.09375 0
          0 0.10563380282 0.3153638814 0.4019138756 0.44470588235 0.49137931034
          0.4019138756 0.3153638814 0.10563380282 0 0 0.16744186047
          0.36971830986 0.440625 0.44582043344 0.49719101124 0.440625 0.36971830986
          0.16744186047 0 0 0.16759776536 0.3686440678 0.43984962406
          0.44609665428 0.49662162162 0.43984962406 0.3686440678 0.16759776536 0
          0 0 0 0 0 0
          0 0 0 0 0 0.027932960894
          0 0 0 0 0 0
          0.027932960894 0 0 0.055084745763 0.071428571429 0.040345821326
          0.014164305949 0.012987012987 0.040345821326 0.071428571429 0.055084745763 0
          0 0.067669172932 0.11239193084 0.1074168798 0.037688442211 0.034562211982
          0.1074168798 0.11239193084 0.067669172932 0 0 0.074349442379
          0.16147308782 0.16834170854 0.12376237624 0.11286681716 0.16834170854 0.16147308782
          0.074349442379 0 0 0.084459459459 0.2 0.25806451613
          0.33860045147 0.39211618257 0.25806451613 0.2 0.084459459459 0
          0 0.093984962406 0.25360230548 0.36061381074 0.41959798995 0.46774193548
          0.36061381074 0.25360230548 0.093984962406 0 0 0.10593220339
          0.31493506494 0.40057636888 0.4447592068 0.49090909091 0.40057636888 0.31493506494
          0.10593220339 0 0 0.16759776536 0.3686440678 0.43984962406
          0.44609665428 0.49662162162 0.43984962406 0.3686440678 0.16759776536 0
          0 0.1677852349 0.36734693878 0.43891402715 0.44642857143 0.49593495935
          0.43891402715 0.36734693878 0.1677852349 0
        </DataArray>
        <DataArray type="Float64" Name="Displacement" NumberOfComponents="3" format="ascii" RangeMin="2.0026988271" RangeMax="2.0337363789">
          -0.043867458453 -2 -0.11658586582 -0.03891502734 -2 -0.11650661117
          -0.03409514789 -2 -0.11651837964 -0.034259172524 -2 -0.11560730098
          -0.03466246181 -2 -0.11727490905 -0.032273080163 -2 -0.11772013521
          -0.030542555555 -2 -0.11744175864 -0.028418415376 -2 -0.1186368901
          -0.025705237397 -2 -0.11933450914 -0.026247635546 -2 -0.11740541289
          -0.038453125307 -2.0117184063 -0.107988292 -0.037105199037 -2.0094420079 -0.11045253131
          -0.033819920004 -2.0114441881 -0.11140211381 -0.033169701727 -2.0106179597 -0.11249210103
          -0.033462383054 -2.011136133 -0.11209744683 -0.032906310243 -2.0114674792 -0.11149766904
          -0.033012862724 -2.0119989383 -0.11182928179 -0.032110627719 -2.0138065709 -0.1106290163
          -0.029562885088 -2.0121055852 -0.11021245402 -0.028358016136 -2.014018981 -0.10940950296
          -0.035953583679 -2.0107413601 -0.11094613859 -0.033810897833 -2.0124664069 -0.11325641492
          -0.032913582718 -2.0124018167 -0.11214977243 -0.032489845339 -2.0126962923 -0.11195346674
          -0.032512867976 -2.0116235003 -0.11261301817 -0.032417413249 -2.0106163192 -0.11308117248
          -0.031920356602 -2.0131895992 -0.1114378153 -0.032477575696 -2.0143957476 -0.11183338094
          -0.031881971249 -2.0152242109 -0.11301462038 -0.030514664183 -2.0145288411 -0.1114965457
          -0.036184295621 -2.0132754513 -0.11021555579 -0.03503839675 -2.0128666401 -0.11088578948
          -0.03378136179 -2.0135060248 -0.11199765769 -0.032252575387 -2.012738792 -0.11253672778
          -0.032581165983 -2.0129332185 -0.11200352596 -0.031854970694 -2.013550681 -0.11177301951
          -0.031336258455 -2.0132811468 -0.11174317617 -0.030763399745 -2.0148794201 -0.11162133622
          -0.029995797762 -2.0154965178 -0.11092862471 -0.029562198411 -2.017298811 -0.11116277987
          -0.034574356342 -2.0129199896 -0.11161900221 -0.033881087537 -2.0132089118 -0.11287940957
          -0.032669178079 -2.0132705556 -0.11289737437 -0.031908740782 -2.0131807749 -0.1129679896
          -0.031815225279 -2.0133773719 -0.11269972719 -0.031022095232 -2.0139138621 -0.11220990576
          -0.032077138079 -2.0133692147 -0.11201365108 -0.030907411718 -2.0148593341 -0.11247652032
          -0.030214865293 -2.0158633592 -0.11282495163 -0.029629194606 -2.016855489 -0.11261817942
          -0.034658263168 -2.0122540634 -0.1120761623 -0.035318523746 -2.0139808975 -0.11182527428
          -0.033351043404 -2.0140953399 -0.11345339774 -0.03307665434 -2.0139731569 -0.1142280412
          -0.033828449927 -2.014447774 -0.1148238639 -0.029537965522 -2.0131080945 -0.11330817388
          -0.029903422536 -2.014273473 -0.11303480166 -0.029569689783 -2.0156106962 -0.11296156315
          -0.027393959169 -2.0160879947 -0.11239207286 -0.028224230727 -2.0164828165 -0.11263085189
          -0.036419972042 -2.013726629 -0.10995581341 -0.034268270131 -2.0143687342 -0.11337214432
          -0.033740655223 -2.0146809359 -0.11414308368 -0.034826675909 -2.0142624278 -0.11556592898
          -0.032570852304 -2.013956036 -0.11427519277 -0.028877147575 -2.0125729268 -0.11221605762
          -0.026707461145 -2.0142423966 -0.11397657093 -0.027889559556 -2.0162444116 -0.11342422733
          -0.02704717309 -2.0174423913 -0.11363560015 -0.024558262171 -2.0184522376 -0.10998623895
          -0.031848173886 -2.0134432279 -0.11486775837 -0.033881810349 -2.0155984683 -0.11432536719
          -0.03295451654 -2.015548399 -0.11529119992 -0.031513464776 -2.0152472114 -0.11513055786
          -0.029882204138 -2.0164910946 -0.11415331935 -0.028909600865 -2.0140960647 -0.11233282327
          -0.027896161966 -2.0149845762 -0.11367955103 -0.026645455014 -2.0169989335 -0.1143359906
          -0.025369884676 -2.0188098188 -0.11387355632 -0.0268357981 -2.0184427136 -0.11437601167
          -0.035935895989 -2.0166349079 -0.11483788224 -0.034092356451 -2.0160728998 -0.11547624957
          -0.031019965819 -2.0170470696 -0.11730577046 -0.034162318993 -2.0191178346 -0.12039858504
          -0.03101264478 -2.0221877274 -0.11945723042 -0.025163874411 -2.018537854 -0.11905467953
          -0.021325731145 -2.018458277 -0.11884466235 -0.024956200704 -2.018392125 -0.11600684083
          -0.022162196892 -2.0199515644 -0.1143953719 -0.019324522053 -2.0233806506 -0.11361717766
          -0.022345966882 -2.013892944 -0.12076437668 -0.032817992101 -2.0251045642 -0.12352291065
          -0.029439165727 -2.0162319667 -0.11893614383 -0.026093445058 -2.0189004276 -0.12016120596
          -0.020671839446 -2.0238481217 -0.11489299938 -0.031577015747 -2.0204814872 -0.11458661896
          -0.026377156006 -2.018240002 -0.1198226286 -0.022663797014 -2.0180765499 -0.1183740748
          -0.019400724114 -2.0299363709 -0.12274200806 -0.028963109813 -2.0218140132 -0.1198613635
          -0.043031177464 -2 -0.1118404799 -0.036515901371 -2 -0.1151282953
          -0.035138685297 -2 -0.11526519925 -0.035192438911 -2 -0.11452652193
          -0.034027539362 -2 -0.11529005802 -0.032530756161 -2 -0.11632221588
          -0.030375038596 -2 -0.11619809501 -0.029155028903 -2 -0.1164899285
          -0.027484785634 -2 -0.11696697898 -0.022713799992 -2 -0.11350457874
          -0.034531399858 -2.012264643 -0.10979800586 -0.034194681473 -2.0104630301 -0.11077203197
          -0.032914739773 -2.011183953 -0.1117295289 -0.032704138117 -2.0110780051 -0.11132591154
          -0.033118673394 -2.0117947647 -0.11074752104 -0.032614506254 -2.012198939 -0.11101633989
          -0.03286289007 -2.0121779031 -0.11073615815 -0.032786280923 -2.0131418179 -0.11138271693
          -0.031874325833 -2.0132617812 -0.1100212719 -0.032683601853 -2.0159920701 -0.10992824263
          -0.035137960791 -2.0096329294 -0.11004468075 -0.032892094691 -2.0119013679 -0.1116682892
          -0.032588370923 -2.0118849847 -0.11198466941 -0.032616338331 -2.0120709639 -0.11104870969
          -0.032412174681 -2.0118603617 -0.11153978698 -0.032465405553 -2.0123696607 -0.11128577085
          -0.032576647683 -2.0128900761 -0.11121557799 -0.032787355009 -2.0135203328 -0.11201439673
          -0.0322298219 -2.0145567048 -0.11138313818 -0.030363778715 -2.0138097496 -0.1105633424
          -0.032942598887 -2.0128171842 -0.1119450854 -0.032941455529 -2.0120321027 -0.11249408423
          -0.033008455068 -2.0124461487 -0.11186793991 -0.032272127886 -2.0123072205 -0.11202574076
          -0.032014320152 -2.0122138798 -0.11181970838 -0.031950713705 -2.0122843528 -0.11167332879
          -0.031915102423 -2.0129638086 -0.11149297415 -0.031003365597 -2.0139613466 -0.11123718465
          -0.031399789142 -2.0145780389 -0.11215250463 -0.031693186898 -2.0163871895 -0.11245120798
          -0.032871773524 -2.0115218415 -0.1131979881 -0.032916977714 -2.0124236533 -0.11259775207
          -0.032856269129 -2.0128088576 -0.1128231817 -0.032221944403 -2.0127704476 -0.11303263876
          -0.03171084428 -2.0125212585 -0.11260299055 -0.031692864173 -2.0120107126 -0.11210776933
          -0.031316086096 -2.0130847012 -0.11223036934 -0.030806766525 -2.0141637492 -0.1121353145
          -0.030352676111 -2.0151047847 -0.11231446326 -0.03066352573 -2.0147454436 -0.11377035602
          -0.033877607857 -2.0119419281 -0.1118583726 -0.033378866828 -2.0126630048 -0.11338604096
          -0.033306014698 -2.0130181994 -0.113100377 -0.032316552426 -2.013085236 -0.11389612023
          -0.032412560922 -2.0132160266 -0.11370529179 -0.030151220254 -2.0122697696 -0.11258414824
          -0.03036554932 -2.0133981545 -0.11330300453 -0.028848709117 -2.0148248906 -0.11271431443
          -0.02904837945 -2.0157232336 -0.11311891438 -0.028295991952 -2.0167199166 -0.11248077981
          -0.034275500029 -2.0133369559 -0.11235703181 -0.032941471544 -2.0134806264 -0.1134804549
          -0.033923681488 -2.0136602274 -0.11370924644 -0.033234091738 -2.0141578871 -0.11482150742
          -0.032538670484 -2.0149519808 -0.11512705008 -0.028131582175 -2.0135275727 -0.1136517618
          -0.027765510022 -2.0144343079 -0.11377555115 -0.02695772134 -2.0156480415 -0.11332032624
          -0.027783254843 -2.0169570038 -0.11350391149 -0.026752671349 -2.017990105 -0.11238974205
          -0.03277033738 -2.014245941 -0.11401036894 -0.032669184952 -2.0138747682 -0.1145876025
          -0.032555911222 -2.0139996445 -0.11482873045 -0.032102093114 -2.0146126804 -0.11517881216
          -0.030196778549 -2.0160762244 -0.11454248588 -0.028360846336 -2.0141623919 -0.11308656737
          -0.02685870066 -2.0146274711 -0.11403468336 -0.026435499941 -2.0155015177 -0.11385659892
          -0.026602652069 -2.0171447894 -0.11389556176 -0.026045040681 -2.0194109817 -0.11354440004
          -0.033445527257 -2.0167070834 -0.11471541099 -0.031803544375 -2.0142863946 -0.11516165106
          -0.031911757469 -2.0141524344 -0.11544367711 -0.031825988883 -2.0155565498 -0.11667358869
          -0.03053727915 -2.0169138935 -0.1164504987 -0.02501484365 -2.0135388661 -0.11530397994
          -0.024383049055 -2.0146446602 -0.11561789646 -0.024447055743 -2.0155625156 -0.1143713595
          -0.024491947872 -2.0177750375 -0.11431465555 -0.022394570402 -2.022609923 -0.11385740542
          -0.023895148705 -2.0126081928 -0.11732166042 -0.031458594093 -2.0140912702 -0.11289610724
          -0.027619909893 -2.0161664497 -0.1183157446 -0.028663395966 -2.0188581534 -0.12022880304
          -0.024823211967 -2.0237555004 -0.11713289703 -0.027999474423 -2.0192446494 -0.11695472859
          -0.023650671613 -2.0179833924 -0.11848024627 -0.025288911838 -2.0175106854 -0.1169180145
          -0.021481926167 -2.0184994115 -0.11187638156 -0.02738723748 -2.0196712643 -0.11618206356
          -0.038989063154 -2 -0.11068187133 -0.036854653012 -2 -0.11253866871
          -0.036100865773 -2 -0.11412429763 -0.035198682014 -2 -0.11284100069
          -0.033770342472 -2 -0.11392516764 -0.032661823617 -2 -0.11336298571
          -0.031100801097 -2 -0.1136820063 -0.028961270025 -2 -0.11493783198
          -0.027790905145 -2 -0.11533458315 -0.024444301064 -2 -0.11474962852
          -0.034857664493 -2.0090007379 -0.1105738923 -0.03376539662 -2.0110612806 -0.11073837232
          -0.032763026677 -2.011123221 -0.11084904104 -0.032891663819 -2.0110072165 -0.11068380644
          -0.032854881736 -2.0110835028 -0.11082386145 -0.032807859598 -2.0116859808 -0.11069572812
          -0.032853853493 -2.0125173308 -0.11043939993 -0.033077465928 -2.0129567219 -0.11088869037
          -0.03179724924 -2.0139428698 -0.10991828914 -0.030924401386 -2.0128214125 -0.10993321927
          -0.033499922102 -2.0120175203 -0.11081812125 -0.033836475749 -2.0110272473 -0.11075791536
          -0.033153221325 -2.011401452 -0.11104114502 -0.032494661144 -2.0112418346 -0.11116454131
          -0.032425137898 -2.0114598151 -0.11109510403 -0.032330047806 -2.0116365842 -0.11090500018
          -0.032346613937 -2.0122427093 -0.11104504778 -0.031915032861 -2.013022962 -0.11084905612
          -0.030918954456 -2.0135348036 -0.11047833688 -0.031630344591 -2.0159167771 -0.11026010993
          -0.03343491254 -2.0112343814 -0.11172414267 -0.033252610487 -2.0115141147 -0.11167317635
          -0.032651430108 -2.0117188252 -0.1118211682 -0.03228187243 -2.0116225895 -0.11190082183
          -0.031943106009 -2.0115259713 -0.1116341321 -0.03200700423 -2.0117286995 -0.11169410659
          -0.031822985301 -2.0123422172 -0.11158783608 -0.031570658977 -2.0133553011 -0.11145713133
          -0.030718427103 -2.014203886 -0.11130753781 -0.030636268311 -2.0154873319 -0.11122504406
          -0.033731820564 -2.0120716463 -0.11144746836 -0.032539368541 -2.0115715294 -0.11248712797
          -0.032732198717 -2.0118687144 -0.11248366342 -0.032075415447 -2.0119272407 -0.11257222834
          -0.031680024154 -2.0117680738 -0.1124126596 -0.031585452267 -2.0114117104 -0.1120357181
          -0.031548941959 -2.0122396252 -0.11213498817 -0.030815857966 -2.0134012999 -0.11213001938
          -0.030772586785 -2.0143569924 -0.11229990286 -0.029208806966 -2.0159896239 -0.11115417783
          -0.032292360692 -2.0109104438 -0.11301478325 -0.03213641725 -2.0116548196 -0.11308952004
          -0.032154658115 -2.0119848871 -0.11318671061 -0.033146620969 -2.0126509656 -0.11346106229
          -0.032950673006 -2.012472175 -0.11382063233 -0.029685031516 -2.0115659917 -0.11281564664
          -0.029614743153 -2.012979019 -0.11274347311 -0.029982673021 -2.0137440333 -0.11268756541
          -0.029741596793 -2.0146677501 -0.11262843488 -0.029648104781 -2.0152786506 -0.11300327248
          -0.032508429734 -2.0117771843 -0.1131248536 -0.03288026577 -2.0124967784 -0.11322863454
          -0.032701032308 -2.0126247996 -0.11371806632 -0.032855980349 -2.0129868215 -0.11412020057
          -0.032108023697 -2.0136989357 -0.1144570809 -0.028309026756 -2.0122752174 -0.11340892785
          -0.027456128856 -2.0133541685 -0.1133590683 -0.028011323455 -2.0145837407 -0.11313820037
          -0.027539958743 -2.0157735808 -0.11281662216 -0.027840002988 -2.0169298851 -0.11296692057
          -0.032591277769 -2.0122067863 -0.11289670142 -0.032295714397 -2.012286702 -0.11363241981
          -0.030695318422 -2.0124212435 -0.11461236822 -0.032119329209 -2.0126991696 -0.11422688169
          -0.03091689387 -2.0148833675 -0.11490774493 -0.027640893887 -2.0123755602 -0.11368539506
          -0.02658073609 -2.0129890336 -0.11358498828 -0.028312912525 -2.0145698374 -0.1143884253
          -0.026431915091 -2.0158553624 -0.11317654405 -0.026077877171 -2.0170051056 -0.11226544323
          -0.031722164298 -2.0132217826 -0.11451765166 -0.031008502751 -2.0125917539 -0.11466993575
          -0.031616894834 -2.0133291931 -0.11555338106 -0.03110988771 -2.0137988226 -0.11580801532
          -0.030656921733 -2.0159804098 -0.11637406351 -0.025279884696 -2.0130774493 -0.11558859933
          -0.025115322751 -2.0133736028 -0.11473498109 -0.024716513465 -2.0151090914 -0.11438210994
          -0.025570845596 -2.0163339422 -0.11380721759 -0.024529592104 -2.0194248886 -0.11355557733
          -0.030267433468 -2.0127721838 -0.11483507622 -0.031613326971 -2.0145965166 -0.11585626424
          -0.029184256785 -2.0141292579 -0.11643609251 -0.029646336351 -2.0168162268 -0.11760568868
          -0.026080924263 -2.0210116216 -0.11880215218 -0.026462582854 -2.0170115924 -0.11769928927
          -0.023481868891 -2.0157954801 -0.11644829753 -0.024117562314 -2.0156137426 -0.11541608571
          -0.021723758721 -2.0184695168 -0.1147890149 -0.022469256281 -2.0196918927 -0.11355138404
          -0.042319702183 -2 -0.11039413696 -0.037066996751 -2 -0.11093497377
          -0.036562371728 -2 -0.11157009798 -0.035500527627 -2 -0.11197656202
          -0.033506217219 -2 -0.11213899074 -0.032088820717 -2 -0.11243334681
          -0.030166491156 -2 -0.11217949765 -0.028681156676 -2 -0.11233134428
          -0.027358314773 -2 -0.11260170287 -0.023950343178 -2 -0.11146362661
          -0.034494381873 -2.008981727 -0.11040386579 -0.033361347508 -2.0106319008 -0.11040408455
          -0.033007012787 -2.0104042745 -0.11048131183 -0.032761774384 -2.0107351693 -0.11047391389
          -0.032792579502 -2.0108194225 -0.11057757276 -0.032804928579 -2.0111431044 -0.11056205039
          -0.032813390179 -2.0116588203 -0.11055886427 -0.032345537868 -2.011904354 -0.11055458228
          -0.032558450133 -2.0130883595 -0.11018166478 -0.03134870868 -2.0125313734 -0.10960236311
          -0.03371640108 -2.0102095783 -0.11080453072 -0.033344825348 -2.010502086 -0.11096824157
          -0.032685865796 -2.0106764189 -0.11100012636 -0.032455698131 -2.0107692714 -0.11111630478
          -0.03250698833 -2.0109848165 -0.11101644686 -0.032432424108 -2.0112069763 -0.11104747605
          -0.032432592638 -2.0116262038 -0.11089262509 -0.032227762901 -2.0124085548 -0.11071970599
          -0.031550811019 -2.0132212582 -0.1105991454 -0.031168454391 -2.0137858009 -0.11041586698
          -0.033656137855 -2.010329679 -0.11140030563 -0.033432439361 -2.010819892 -0.11141195565
          -0.032651958862 -2.011064459 -0.11165974046 -0.032128635613 -2.0111418318 -0.11165801545
          -0.032016961708 -2.0111846304 -0.11157266207 -0.031999012508 -2.0111926873 -0.11155939946
          -0.031936294058 -2.0117581697 -0.1113685826 -0.031628642208 -2.012663957 -0.11140395269
          -0.030917079478 -2.0136014258 -0.11118402336 -0.030306672291 -2.0141134835 -0.11095664439
          -0.033086476533 -2.0105605337 -0.11256623192 -0.032864023302 -2.0109670672 -0.11218284786
          -0.032331630383 -2.0110923704 -0.11223822459 -0.032096764716 -2.0113814175 -0.11225358649
          -0.031647878337 -2.0112267559 -0.11219813557 -0.031642626734 -2.0108880645 -0.11197343199
          -0.031494842486 -2.0117518201 -0.11192281066 -0.031156493961 -2.0126234117 -0.11188248978
          -0.030390286841 -2.013819138 -0.1118394186 -0.029710671453 -2.0146907497 -0.11179569346
          -0.032608129354 -2.0107544397 -0.11275072918 -0.03272309688 -2.0111782843 -0.11271210189
          -0.032127142807 -2.0113269641 -0.11295359263 -0.032008065748 -2.0115727973 -0.11297770071
          -0.031911057182 -2.0117134202 -0.11299925609 -0.030151272336 -2.0109376753 -0.11246879849
          -0.030487074322 -2.0120352919 -0.11236850663 -0.030368426094 -2.0129433932 -0.11253110644
          -0.029045588006 -2.0143196376 -0.11226250179 -0.029044218685 -2.0153316032 -0.11229946175
          -0.031669978176 -2.0114855323 -0.11390029363 -0.032486849546 -2.0118316706 -0.11335777924
          -0.031767392386 -2.0118563339 -0.11361270053 -0.031924320744 -2.0122649527 -0.11384424666
          -0.031578412096 -2.0128242956 -0.11392734961 -0.028190789902 -2.0114654722 -0.11317432799