<?xml version="1.0"?>
<VTKFile type="UnstructuredGrid" version="0.1" byte_order="LittleEndian" compressor="vtkZLibDataCompressor">
  <UnstructuredGrid>
    <FieldData>
      <DataArray type="Float64" Name="TIME" NumberOfTuples="1" format="ascii" RangeMin="0.85499242718" RangeMax="0.85499242718">
        0.85499242718
      </DataArray>
    </FieldData>
    <Piece NumberOfPoints="1000" NumberOfCells="0">
      <PointData>
        <DataArray type="Float64" Name="Damage" format="ascii" RangeMin="0" RangeMax="0.50406504065">
          0 0 0 0 0 0
          0 0 0 0 0 0.027932960894
          0 0 0 0 0 0
          0.027932960894 0 0 0.055084745763 0.071428571429 0.040345821326
          0.014164305949 0.012987012987 0.040345821326 0.071428571429 0.055084745763 0
          0 0.067669172932 0.11239193084 0.1074168798 0.037688442211 0.034562211982
          0.1074168798 0.11239193084 0.067669172932 0 0 0.074349442379
          0.16147308782 0.16834170854 0.12376237624 0.11286681716 0.16834170854 0.16147308782
          0.074349442379 0 0 0.084459459459 0.2 0.25806451613
          0.33860045147 0.39211618257 0.25806451613 0.2 0.084459459459 0
          0 0.093984962406 0.25360230548 0.36061381074 0.41959798995 0.46774193548
          0.36061381074 0.25360230548 0.093984962406 0 0 0.10593220339
          0.31493506494 0.40057636888 0.4447592068 0.49090909091 0.40057636888 0.31493506494
          0.10593220339 0 0 0.17318435754 0.3686440678 0.43984962406
          0.44981412639 0.5 0.43984962406 0.3686440678 0.17318435754 0
          0.016129032258 0.18791946309 0.36734693878 0.44343891403 0.46428571429 0.50406504065
          0.44343891403 0.36734693878 0.18791946309 0.008064516129 0 0
          0 0 0 0 0 0
          0 0 0 0.027906976744 0 0
          0 0 0 0 0.027906976744 0
          0 0.056338028169 0.072776280323 0.040669856459 0.014117647059 0.012931034483
          0.040669856459 0.072776280323 0.056338028169 0 0 0.06875
          0.11483253589 0.10828025478 0.0375782881 0.034416826004 0.10828025478 0.11483253589
          0.06875 0 0 0.074303405573 0.16235294118 0.16910229645
          0.12371134021 0.11257035647 0.16910229645 0.16235294118 0.074303405573 0
          0 0.084269662921 0.20043103448 0.25812619503 0.33771106942 0.39242685026
          0.25812619503 0.20043103448 0.084269662921 0 0 0.09375
          0.25358851675 0.36093418259 0.41962421712 0.46845124283 0.36093418259 0.25358851675
          0.09375 0 0 0.10563380282 0.3153638814 0.4019138756
          0.44470588235 0.49137931034 0.4019138756 0.3153638814 0.10563380282 0
          0 0.16744186047 0.36971830986 0.440625 0.44582043344 0.49719101124
          0.440625 0.36971830986 0.16744186047 0 0.013422818792 0.17877094972
          0.3686440678 0.44360902256 0.44981412639 0.49662162162 0.43984962406 0.3686440678
          0.17877094972 0.006711409396 0 0 0 0
          0 0 0 0 0 0
          0 0.024647887324 0 0 0 0
          0 0 0.024647887324 0 0 0.051212938005
          0.06875 0.038817005545 0.012635379061 0.011666666667 0.038817005545 0.06875
          0.051212938005 0 0 0.064593301435 0.10905730129 0.10491803279
          0.036858974359 0.034023668639 0.10491803279 0.10905730129 0.064593301435 0
          0 0.070588235294 0.15523465704 0.16506410256 0.12283464567 0.11271676301
          0.16506410256 0.15523465704 0.070588235294 0 0 0.081896551724
          0.19333333333 0.25443786982 0.33959537572 0.38985313752 0.25443786982 0.19333333333
          0.081896551724 0 0 0.093301435407 0.24768946396 0.35573770492
          0.41987179487 0.46449704142 0.35573770492 0.24768946396 0.093301435407 0
          0 0.10781671159 0.30833333333 0.39556377079 0.4440433213 0.48666666667
          0.39556377079 0.30833333333 0.10781671159 0 0 0.16197183099
          0.35579514825 0.43062200957 0.44470588235 0.49137931034 0.43062200957 0.35579514825
          0.16197183099 0 0 0.16101694915 0.3538961039 0.42939481268
          0.4447592068 0.49090909091 0.42939481268 0.3538961039 0.16101694915 0
          0 0 0 0 0 0
          0 0 0 0 0 0.025
          0 0 0 0 0 0
          0.025 0 0 0.05023923445 0.068391866913 0.039344262295
          0.012820512821 0.011834319527 0.039344262295 0.068391866913 0.05023923445 0
          0 0.063694267516 0.10819672131 0.10465116279 0.036984352774 0.034120734908
          0.10465116279 0.10819672131 0.063694267516 0 0 0.070981210856
          0.15544871795 0.16500711238 0.12290502793 0.11282051282 0.16500711238 0.15544871795
          0.070981210856 0 0 0.082217973231 0.19378698225 0.25459317585
          0.33974358974 0.38981042654 0.25459317585 0.19378698225 0.082217973231 0
          0 0.093418259023 0.24918032787 0.35610465116 0.41963015647 0.46456692913
          0.35610465116 0.24918032787 0.093418259023 0 0 0.10765550239
          0.30868761553 0.39508196721 0.44391025641 0.48668639053 0.39508196721 0.30868761553
          0.10765550239 0 0 0.1625 0.35645933014 0.43099787686
          0.44467640919 0.4913957935 0.43099787686 0.35645933014 0.1625 0
          0 0.16165413534 0.35446685879 0.42966751918 0.44472361809 0.49078341014
          0.42966751918 0.35446685879 0.16165413534 0 0 0
          0 0 0 0 0 0
          0 0 0 0.02786377709 0 0
          0 0 0 0 0.02786377709 0
          0 0.054117647059 0.070397111913 0.040064102564 0.014173228346 0.013005780347
          0.040064102564 0.070397111913 0.054117647059 0 0 0.066805845511
          0.11057692308 0.106685633 0.037709497207 0.034615384615 0.106685633 0.11057692308
          0.066805845511 0 0 0.074226804124 0.16062992126 0.16759776536
          0.12362637363 0.11292346299 0.16759776536 0.16062992126 0.074226804124 0
          0 0.084427767355 0.19942196532 0.25769230769 0.33877038896 0.39145496536
          0.25769230769 0.19942196532 0.084427767355 0 0 0.093945720251
          0.25320512821 0.35988620199 0.41899441341 0.46666666667 0.35988620199 0.25320512821
          0.093945720251 0 0 0.10588235294 0.31407942238 0.39903846154
          0.44409448819 0.48988439306 0.39903846154 0.31407942238 0.10588235294 0
          0 0.16718266254 0.36705882353 0.43841336117 0.44536082474 0.49530956848
          0.43841336117 0.36705882353 0.16718266254 0 0 0.16728624535
          0.36543909348 0.43718592965 0.44554455446 0.49435665914 0.43718592965 0.36543909348
          0.16728624535 0 0 0 0 0
          0 0 0 0 0 0
          0 0.025280898876 0 0 0 0
          0 0 0.025280898876 0 0 0.049568965517
          0.066666666667 0.038461538462 0.013005780347 0.012016021362 0.038461538462 0.066666666667
          0.049568965517 0 0 0.06309751434 0.1050295858 0.10367454068
          0.037179487179 0.034360189573 0.10367454068 0.1050295858 0.06309751434 0
          0 0.071294559099 0.15462427746 0.1641025641 0.12296110414 0.11316397229
          0.1641025641 0.15462427746 0.071294559099 0 0 0.082616179002
          0.19359145527 0.25473933649 0.34064665127 0.38930481283 0.25473933649 0.19359145527
          0.082616179002 0 0 0.093690248566 0.24852071006 0.35564304462
          0.41923076923 0.46327014218 0.35564304462 0.24852071006 0.093690248566 0
          0 0.10775862069 0.30833333333 0.39349112426 0.4436416185 0.48598130841
          0.39349112426 0.30833333333 0.10775862069 0 0 0.16292134831
          0.35560344828 0.43021032505 0.44465290807 0.49053356282 0.43021032505 0.35560344828
          0.16292134831 0 0 0.16216216216 0.35324675325 0.42857142857
          0.44469525959 0.48962655602 0.42857142857 0.35324675325 0.16216216216 0
          0 0 0 0 0 0
          0 0 0 0 0 0.025
          0 0 0 0 0 0
          0.025 0 0 0.05023923445 0.068391866913 0.039344262295
          0.012820512821 0.011834319527 0.039344262295 0.068391866913 0.05023923445 0
          0 0.063694267516 0.10819672131 0.10465116279 0.036984352774 0.034120734908
          0.10465116279 0.10819672131 0.063694267516 0 0 0.070981210856
          0.15544871795 0.16500711238 0.12290502793 0.11282051282 0.16500711238 0.15544871795
          0.070981210856 0 0 0.082217973231 0.19378698225 0.25459317585
          0.33974358974 0.38981042654 0.25459317585 0.19378698225 0.082217973231 0
          0 0.093418259023 0.24918032787 0.35610465116 0.41963015647 0.46456692913
          0.35610465116 0.24918032787 0.093418259023 0 0 0.10765550239
          0.30868761553 0.39508196721 0.44391025641 0.48668639053 0.39508196721 0.30868761553
          0.10765550239 0 0 0.1625 0.35645933014 0.43099787686
          0.44467640919 0.4913957935 0.43099787686 0.35645933014 0.1625 0
          0 0.16165413534 0.35446685879 0.42966751918 0.44472361809 0.49078341014
          0.42966751918 0.35446685879 0.16165413534 0 0 0
          0 0 0 0 0 0
          0 0 0 0.024647887324 0 0
          0 0 0 0 0.024647887324 0
          0 0.051212938005 0.06875 0.038817005545 0.012635379061 0.011666666667
          0.038817005545 0.06875 0.051212938005 0 0 0.064593301435
          0.10905730129 0.10491803279 0.036858974359 0.034023668639 0.10491803279 0.10905730129
          0.064593301435 0 0 0.070588235294 0.15523465704 0.16506410256
          0.12283464567 0.11271676301 0.16506410256 0.15523465704 0.070588235294 0
          0 0.081896551724 0.19333333333 0.25443786982 0.33959537572 0.38985313752
          0.25443786982 0.19333333333 0.081896551724 0 0 0.093301435407
          0.24768946396 0.35573770492 0.41987179487 0.46449704142 0.35573770492 0.24768946396
          0.093301435407 0 0 0.10781671159 0.30833333333 0.39556377079
          0.4440433213 0.48666666667 0.39556377079 0.30833333333 0.10781671159 0
          0 0.16197183099 0.35579514825 0.43062200957 0.44470588235 0.49137931034
          0.43062200957 0.35579514825 0.16197183099 0 0 0.16101694915
          0.3538961039 0.42939481268 0.4447592068 0.49090909091 0.42939481268 0.3538961039
          0.16101694915 0 0 0 0 0
          0 0 0 0 0 0
          0 0.027906976744 0 0 0 0
          0 0 0.027906976744 0 0 0.056338028169
          0.072776280323 0.040669856459 0.014117647059 0.012931034483 0.040669856459 0.072776280323
          0.056338028169 0 0 0.06875 0.11483253589 0.10828025478
          0.0375782881 0.034416826004 0.10828025478 0.11483253589 0.06875 0
          0 0.074303405573 0.16235294118 0.16910229645 0.12371134021 0.11257035647
          0.16910229645 0.16235294118 0.074303405573 0 0 0.084269662921
          0.20043103448 0.25812619503 0.33771106942 0.39242685026 0.25812619503 0.20043103448
          0.084269662921 0 0 0.09375 0.25358851675 0.36093418259
          0.41962421712 0.46845124283 0.36093418259 0.25358851675 0.09375 0
          0 0.10563380282 0.3153638814 0.4019138756 0.44470588235 0.49137931034
          0.4019138756 0.3153638814 0.10563380282 0 0 0.16744186047
          0.36971830986 0.440625 0.44582043344 0.49719101124 0.440625 0.36971830986
          0.16744186047 0 0.006711409396 0.16759776536 0.3686440678 0.43984962406
          0.44609665428 0.49662162162 0.43984962406 0.3686440678 0.17318435754 0.006711409396
          0 0 0 0 0 0
          0 0 0 0 0 0.027932960894
          0 0 0 0 0 0
          0.027932960894 0 0 0.055084745763 0.071428571429 0.040345821326
          0.014164305949 0.012987012987 0.040345821326 0.071428571429 0.055084745763 0
          0 0.067669172932 0.11239193084 0.1074168798 0.037688442211 0.034562211982
          0.1074168798 0.11239193084 0.067669172932 0 0 0.074349442379
          0.16147308782 0.16834170854 0.12376237624 0.11286681716 0.16834170854 0.16147308782
          0.074349442379 0 0 0.084459459459 0.2 0.25806451613
          0.33860045147 0.39211618257 0.25806451613 0.2 0.084459459459 0
          0 0.093984962406 0.25360230548 0.36061381074 0.41959798995 0.46774193548
          0.36061381074 0.25360230548 0.093984962406 0 0 0.10593220339
          0.31493506494 0.40057636888 0.4447592068 0.49090909091 0.40057636888 0.31493506494
          0.10593220339 0 0 0.16759776536 0.3686440678 0.43984962406
          0.44981412639 0.5 0.43984962406 0.3686440678 0.16759776536 0.006711409396
          0.016129032258 0.1744966443 0.36734693878 0.44343891403 0.45535714286 0.50406504065
          0.44343891403 0.36734693878 0.18120805369 0.024193548387
        </DataArray>
        <DataArray type="Float64" Name="Displacement" NumberOfComponents="3" format="ascii" RangeMin="0.17933645646" RangeMax="1.3369728608">
          0.19839200292 0.099295294061 -0.53306412623 0.16881267294 0.16524441798 -0.49342900068
          0.13792213019 0.23488850132 -0.45449414488 0.10347054109 0.30079101449 -0.42108273465
          0.072161802109 0.37187541686 -0.38437570193 0.04184508059 0.43607783779 -0.34743550361
          0.012419991824 0.50095027589 -0.31262180181 -0.022496764173 0.56860936406 -0.27860785266
          -0.047823914642 0.63625792624 -0.23988284466 -0.078543378324 0.70483146031 -0.20630978147
          0.13424362696 0.023566590733 -0.44477033352 0.099924999002 0.091412333138 -0.40919817281
          0.072830216455 0.15443693698 -0.37540489088 0.037187451093 0.2235219983 -0.33688935209
          0.0082874521548 0.29060724536 -0.30091217993 -0.020174923762 0.35679684049 -0.26546582637
          -0.05060830566 0.42294542174 -0.23016294012 -0.08068906886 0.48979944417 -0.19538211205
          -0.11501790909 0.5595076166 -0.15734126655 -0.14709661471 0.62633733729 -0.12361854856
          0.063412384465 -0.057335154312 -0.36349490171 0.035399662268 0.013228741836 -0.32705787855
          0.0035754476712 0.078324319044 -0.29082138787 -0.027250609843 0.14664496798 -0.25509009308
          -0.056545713898 0.21338749015 -0.21909869471 -0.088412409496 0.28144459478 -0.18223886138
          -0.11765551325 0.34857343953 -0.14639920089 -0.14626310777 0.41433118412 -0.11034915162
          -0.18109026421 0.48154367958 -0.075057053978 -0.21101921621 0.55148747642 -0.037889366556
          -0.0013955314325 -0.13263166963 -0.27968701796 -0.030527551654 -0.064255306024 -0.24458455384
          -0.060618326378 0.0015340335776 -0.20857565914 -0.092566309809 0.069694039623 -0.17242642476
          -0.12266936008 0.13667107858 -0.13622492872 -0.15283277533 0.20417302182 -0.099573027752
          -0.1840675994 0.27203931859 -0.063340861276 -0.21397914409 0.3382151929 -0.027845018676
          -0.24581462041 0.40423957618 0.0077739226363 -0.27553551395 0.47338513618 0.045710820425
          -0.065527337318 -0.20769823011 -0.19862823198 -0.09711615164 -0.14216393774 -0.16293618803
          -0.12747299688 -0.074774231565 -0.12558514528 -0.15842999872 -0.0077069296407 -0.089293852864
          -0.18825420105 0.059937860895 -0.052765232197 -0.21856273304 0.12714625408 -0.017448071399
          -0.24836575381 0.19481365438 0.019852714847 -0.27942992673 0.26152995432 0.055215086332
          -0.30924467318 0.32884525484 0.090652760657 -0.34170885121 0.3951787253 0.12535749764
          -0.13224534708 -0.28682888241 -0.11576401732 -0.1630569865 -0.21849290969 -0.078506586475
          -0.19269172077 -0.15179837435 -0.04253351389 -0.22325377242 -0.08445543062 -0.0062975089197
          -0.25178781239 -0.017525779335 0.031551243553 -0.28607316278 0.046000374658 0.066420263229
          -0.31480731135 0.11701737475 0.10197726464 -0.34530704302 0.18406397906 0.1385909428
          -0.3759920516 0.25193638754 0.17405401562 -0.40673330481 0.31924851783 0.21006013651
          -0.19843004723 -0.3637330482 -0.032644106849 -0.22921650668 -0.29721199055 0.0036485791192
          -0.25924693394 -0.22839066258 0.040047622667 -0.28837161806 -0.1614180449 0.076610252066
          -0.31886480215 -0.093333456543 0.11282362534 -0.35052635677 -0.02809452979 0.14734937921
          -0.38009195311 0.040041544266 0.18405434261 -0.41052056998 0.10847834307 0.22042118022
          -0.43982498284 0.17560168905 0.25751704798 -0.4743153249 0.24256007212 0.29198176429
          -0.26430022219 -0.44222330497 0.049410130514 -0.29433639842 -0.37400296746 0.086992218335
          -0.32381516985 -0.3049009798 0.12388484345 -0.35329769627 -0.23695847978 0.16050904984
          -0.38480286907 -0.1702223865 0.1953111412 -0.41645831032 -0.10406839183 0.23076526571
          -0.44796082168 -0.037762057449 0.26708734689 -0.47847698845 0.029582129885 0.30340983323
          -0.50601739654 0.09835192397 0.34012512161 -0.53512267098 0.16572398938 0.37692226243
          -0.32913346202 -0.52016144926 0.13557200365 -0.35998564804 -0.45294663833 0.16884807658
          -0.39299115607 -0.38503789483 0.20299200471 -0.4208581942 -0.31564633187 0.23855100524
          -0.4502384289 -0.24801058296 0.28313098126 -0.48449191316 -0.18484412752 0.31697814495
          -0.51031751668 -0.11245978632 0.34652725448 -0.53865041526 -0.043712896297 0.38555612751
          -0.57133858048 0.02051304916 0.4226792621 -0.60067069056 0.087607497905 0.46335197577
          -0.3920316364 -0.5819665799 0.2137439746 -0.42692921783 -0.53205000764 0.26021311165
          -0.45534757117 -0.4616563122 0.28379476668 -0.49202839978 -0.39651412381 0.32415544142
          -0.51654791648 -0.32351931494 0.35998497071 -0.54871404665 -0.25869311531 0.39691510374
          -0.5720867 -0.18834068785 0.43385626187 -0.60543913334 -0.12193795316 0.46532080018
          -0.6430824369 -0.059877030011 0.51469234284 -0.66409795554 0.011932260663 0.54036564341
          0.22908524914 0.014933433108 -0.57477791768 0.21104423212 0.079441778877 -0.53978102193
          0.17435597934 0.15196675995 -0.50302532129 0.14222359403 0.21995141131 -0.46677732707
          0.11143055396 0.28869788809 -0.43069253292 0.080974804783 0.3563255938 -0.39524062455
          0.050616894212 0.42286006701 -0.35780778288 0.020670299373 0.48910033067 -0.32278874445
          -0.005844939282 0.54805495904 -0.28851349249 -0.039913631657 0.62531765146 -0.24685338823
          0.17306160363 -0.059031866628 -0.49400277982 0.13700068255 0.0098022118106 -0.45709509328
          0.10814898929 0.075130882254 -0.42047375521 0.078183870585 0.14211790547 -0.38325427958
          0.047039034978 0.20960827096 -0.34772196123 0.01755335688 0.27670229637 -0.3120069577
          -0.014054052345 0.34278952793 -0.27504609704 -0.043018368571 0.41091962356 -0.24043760201
          -0.07474979552 0.47816494806 -0.2036742257 -0.10432064136 0.54234520152 -0.16958467324
          0.10558122381 -0.138657606 -0.40934522285 0.073313919137 -0.070264793588 -0.37372459119
          0.04304332284 -0.0029545000076 -0.33736561747 0.012195054804 0.06488424921 -0.3015590968
          -0.018492083446 0.13203915197 -0.26534333584 -0.048498824303 0.19966805288 -0.22887215203
          -0.078403987588 0.2666884215 -0.19295502616 -0.10886951971 0.3329990596 -0.15634373697
          -0.13851021909 0.4002192636 -0.12011616034 -0.16846582336 0.46586763473 -0.084406269174
          0.037646229606 -0.21443348965 -0.3263734103 0.0076818725192 -0.14638793096 -0.29094676849
          -0.022988488885 -0.078986707156 -0.25515441777 -0.053197051445 -0.012052526136 -0.2187456263
          -0.083223686445 0.055108684183 -0.18267930368 -0.11349462113 0.12211703619 -0.1461637765
          -0.14379628447 0.19010759927 -0.10994000484 -0.17501061218 0.25694155963 -0.07423155824
          -0.20507968497 0.32372520916 -0.037815991754 -0.23580599609 0.39169615743 -0.00081671976612
          -0.028498881654 -0.29027674339 -0.24339072033 -0.057802909928 -0.22358371547 -0.20763041318
          -0.088059344025 -0.15663987842 -0.17189183417 -0.11899421818 -0.089371372185 -0.13577273733
          -0.14919992414 -0.021881496141 -0.099598182191 -0.17932248868 0.045269775797 -0.063633579429
          -0.20990689124 0.11303158997 -0.026912128017 -0.24021609154 0.1791106995 0.0084772045427
          -0.27128570188 0.24719953169 0.045220778305 -0.30131339169 0.31471348792 0.08229761673
          -0.093085404306 -0.36643084822 -0.16121154083 -0.12277757098 -0.30033270551 -0.12501555453
          -0.154476649 -0.23284798659 -0.089233042575 -0.18458919226 -0.1663733128 -0.052211658397
          -0.21472122858 -0.098385405172 -0.016911571436 -0.24506718538 -0.03140385883 0.018675759517
          -0.27570697876 0.035785995076 0.056137227483 -0.30664313566 0.10314179911 0.091634630594
          -0.33685243181 0.17016452594 0.12800506942 -0.36895092341 0.23757656397 0.16336959729
          -0.15921089169 -0.44326636775 -0.077869098259 -0.18960170346 -0.37822651034 -0.042882084212
          -0.21923516007 -0.30963978389 -0.0065588612807 -0.25111090547 -0.24248904645 0.02885668435
          -0.28041213989 -0.17504320371 0.065929099253 -0.31176003701 -0.10877799159 0.10151072516
          -0.34146239003 -0.040593063108 0.13761600106 -0.37226858472 0.026016516384 0.1737738797
          -0.40168230546 0.09341569391 0.21058243146 -0.43386542323 0.16073573998 0.24652217813
          -0.22437862616 -0.51971924325 0.0035058364158 -0.25517423642 -0.45516215617 0.042336787301
          -0.28635572298 -0.38770363073 0.077193205813 -0.31604586734 -0.31987533044 0.11272240815
          -0.34587669591 -0.25202547762 0.14856106499 -0.37761069775 -0.18761505928 0.18442512271
          -0.40743970286 -0.11793045216 0.22058727578 -0.43725778975 -0.050558494566 0.2574020682
          -0.46920849723 0.016027823075 0.29464816729 -0.50012258317 0.084277607876 0.32764122475
          -0.29024929028 -0.60354324323 0.084821383052 -0.32077913916 -0.53169916022 0.12272761158
          -0.3517505925 -0.46419329125 0.15882232847 -0.381728816 -0.39640929091 0.19413453062
          -0.41390593817 -0.32951792663 0.23140508728 -0.4423120656 -0.26122244133 0.26845984203
          -0.47327817504 -0.19497705923 0.30251551375 -0.50356294607 -0.12753900316 0.3390133005
          -0.53426114616 -0.060188695924 0.37648828559 -0.56221901507 0.0071168943914 0.41157916024
          -0.35762912266 -0.67300452515 0.17460667037 -0.38807315528 -0.61101879454 0.20260351896
          -0.41819504035 -0.54373411116 0.24182279043 -0.44853091581 -0.47270268343 0.27641248702
          -0.47892537819 -0.40304583998 0.31576090301 -0.50924640977 -0.33909269349 0.35000143575
          -0.5399143605 -0.27133981418 0.383209518 -0.56905881396 -0.20512436106 0.42341512593
          -0.60116168697 -0.13632494758 0.45903399796 -0.63839207044 -0.070485212788 0.49342716325
          0.27578383195 -0.067744298849 -0.62046775283 0.24526925071 0.0026577777137 -0.58599033156
          0.21371050793 0.068243626845 -0.54989882044 0.18262137345 0.13682364889 -0.51447071318
          0.15265577916 0.20387972435 -0.47763755386 0.12315994111 0.27049873505 -0.44246800964
          0.091809745868 0.33950726922 -0.40578241488 0.061899218366 0.40465954706 -0.36800457327
          0.030880002149 0.47040872573 -0.33439350361 0.0016071118084 0.53864489983 -0.29506245164
          0.21080098243 -0.14267099278 -0.53995695509 0.17779284436 -0.073863033929 -0.50325854218
          0.14749289102 -0.0079006264321 -0.46684086011 0.11810462715 0.059407031835 -0.43113244118
          0.086750122605 0.12699488005 -0.39515706508 0.056704188493 0.1939891065 -0.3590901154
          0.02608519807 0.26135436411 -0.32273387024 -0.0036420962063 0.32903535484 -0.28607621689
          -0.035020745381 0.39596512646 -0.25083050296 -0.064395498315 0.46079372306 -0.21565243048
          0.14164394796 -0.2196028557 -0.45645074131 0.112662617 -0.15089578962 -0.42016939568
          0.081838235598 -0.083950397088 -0.38432294826 0.051366418737 -0.017254813674 -0.34798585744
          0.020930731993 0.050373920516 -0.3119707705 -0.0090812441416 0.1177845681 -0.27560200578
          -0.039321963067 0.18459232288 -0.23949552298 -0.070599458401 0.25232038602 -0.20360921716
          -0.10113649994 0.31894288842 -0.16720246664 -0.13114501974 0.38750072377 -0.12960474806
          0.07629807449 -0.29438693367 -0.3741466156 0.046436174297 -0.22850355789 -0.33816099756
          0.016015211397 -0.16085985723 -0.30140263964 -0.014321188125 -0.093321756522 -0.26532887145
          -0.044303420125 -0.0265043971 -0.22920955279 -0.074856728981 0.040856637998 -0.19313995411
          -0.10580645908 0.10828317098 -0.15681305606 -0.13557547387 0.17525686289 -0.12031959872
          -0.16562168354 0.242723441 -0.084876947376 -0.19800013496 0.31066412099 -0.049385543733
          0.012048872748 -0.37133537892 -0.29122768142 -0.018238076941 -0.30570355821 -0.25402468548
          -0.049382937513 -0.23761161394 -0.21829384008 -0.0798839356 -0.17069851232 -0.18281975722
          -0.1102383649 -0.10336407171 -0.14695363772 -0.1406893188 -0.036059041589 -0.11029715051
          -0.17093932236 0.031285967962 -0.074014395983 -0.20160983875 0.098419078143 -0.037351666855
          -0.23187458739 0.16481659327 -0.001425541267 -0.26400135847 0.23340253335 0.033158537941
          -0.05389599793 -0.45067598467 -0.20873419569 -0.08447345634 -0.3820111054 -0.17136065461
          -0.11513155177 -0.31465704003 -0.13615571059 -0.14548017801 -0.24715247817 -0.099895485469
          -0.17564667317 -0.18005127653 -0.063276010707 -0.20678267673 -0.11341128416 -0.027313257857
          -0.2370215012 -0.045649007169 0.008717762419 -0.26672125171 0.021697463999 0.045331336035
          -0.29797550648 0.088831041207 0.081240712034 -0.32725533249 0.15615778771 0.11674389292
          -0.11965654841 -0.52539309582 -0.12487918734 -0.14951129713 -0.45811567275 -0.088720195772
          -0.18066369429 -0.39154013655 -0.052989368496 -0.2112948963 -0.32469026121 -0.016979147765
          -0.24240679952 -0.25696522395 0.018448130561 -0.27155558193 -0.18885472754 0.055229820916
          -0.30242605929 -0.12281382238 0.091662824742 -0.33319310388 -0.055438379471 0.12769351559
          -0.36461891267 0.011499669927 0.16369030596 -0.39539420398 0.079300291501 0.1996506751
          -0.18516628063 -0.60337870811 -0.04271557237 -0.21516059 -0.53535579379 -0.0058196778355
          -0.24605598556 -0.46930008922 0.030359503208 -0.2753372548 -0.40053371739 0.066412256228
          -0.30647965122 -0.33314046065 0.10113406203 -0.33801410942 -0.26676502934 0.13709884368
          -0.36949728586 -0.20108138449 0.17383357275 -0.39802938338 -0.13292577295 0.21101453806
          -0.42969399607 -0.06550337837 0.24669735065 -0.45895509581 0.0032847628956 0.28181171545
          -0.25114411438 -0.68061171337 0.040459684699 -0.28200982571 -0.61316765612 0.076498274615
          -0.31125833028 -0.54427832482 0.11392327603 -0.34169059041 -0.47722534165 0.14888541108
          -0.37156554899 -0.41035841119 0.18495747419 -0.40420229337 -0.34490545685 0.22054144642
          -0.43485452541 -0.27688870886 0.25642870705 -0.46589166909 -0.20985474419 0.29293320426
          -0.49426740279 -0.14135821428 0.32951109877 -0.52600646223 -0.074474414505 0.36545131993
          -0.31754616423 -0.75757711403 0.1215691795 -0.34692472592 -0.68854393988 0.15812475404
          -0.3768171344 -0.62213567281 0.19826723246 -0.40773269684 -0.55381488109 0.23135682555
          -0.43955013076 -0.48668242215 0.26614912103 -0.46864108359 -0.41794404705 0.30460831019
          -0.50028581074 -0.35282012639 0.33951411721 -0.53138703351 -0.28735308787 0.37766015067
          -0.56207579101 -0.21867549334 0.4115114146 -0.59046267935 -0.14975850138 0.44627570306
          0.30934397941 -0.14616538759 -0.66922198764 0.28185595764 -0.07926670378 -0.63168277944
          0.25308647289 -0.011707129007 -0.59660894927 0.22098284922 0.055742327779 -0.55926125368
          0.19205139986 0.12247974848 -0.52363209536 0.16037349666 0.19000300651 -0.48727339399
          0.12991708383 0.25668108985 -0.45069354574 0.10040642515 0.32299926009 -0.41695457528
          0.070349958617 0.39276755442 -0.37671702308 0.040843846017 0.4605613314 -0.34068176354
          0.24741082837 -0.22210136554 -0.5865572732 0.21619534981 -0.1565523587 -0.54990193539
          0.18646832349 -0.088605837839 -0.51336762047 0.15676430587 -0.021302863297 -0.47764478624
          0.12609926775 0.045490373305 -0.44145975513 0.095264455121 0.11306768412 -0.40516592218
          0.065492753969 0.18001246025 -0.36890315131 0.034687502873 0.24754111876 -0.33311235601
          0.0042045102819 0.31508373964 -0.29625451875 -0.026358389439 0.38154789283 -0.26102951922
          0.18234179388 -0.30052742203 -0.50356384698 0.15125186975 -0.23281181146 -0.4666016088
          0.1209214552 -0.16638875954 -0.43049555172 0.090342641122 -0.098403440595 -0.3946140832
          0.060112603102 -0.031283564496 -0.35862550338 0.029649835331 0.036059531631 -0.32232024732
          -0.00075608713389 0.10328617127 -0.2860447045 -0.030228397644 0.17021642689 -0.24929429273
          -0.061725522553 0.23808408395 -0.21341471989 -0.091860338089 0.30493645119 -0.17711650411
          0.1160898989 -0.37722550656 -0.42020107967 0.084938147962 -0.30965838874 -0.38375700131
          0.055439396606 -0.24206103559 -0.3477627176 0.024965336254 -0.17529584605 -0.31185680862
          -0.0053805427839 -0.10804495297 -0.27585134084 -0.035869458288 -0.040752953662 -0.23954443952
          -0.066363727266 0.026375307401 -0.20332340399 -0.097292220017 0.093617447636 -0.16715912195
          -0.12786248159 0.1617541383 -0.13048048713 -0.15785728244 0.22831607534 -0.094575440434
          0.050042951098 -0.45466338263 -0.33699417717 0.020312258009 -0.38686708064 -0.30121145551
          -0.010410344779 -0.31969505287 -0.26512236579 -0.040663470334 -0.2517879794 -0.22842042857
          -0.071168466406 -0.18473965351 -0.19290084372 -0.10164309047 -0.11768049055 -0.15664023908
          -0.13270666159 -0.050538236563 -0.12038903241 -0.1626183233 0.016885589433 -0.084230181223
          -0.19275247233 0.084084666173 -0.047896368838 -0.22317355881 0.15113230407 -0.01133898725
          -0.015108446588 -0.53108024925 -0.25385558921 -0.045504707121 -0.46369609091 -0.21816908035
          -0.075796510539 -0.39598972859 -0.18205243075 -0.10628126255 -0.329018614 -0.1459618464
          -0.13647917215 -0.26117870346 -0.11008881543 -0.1677115353 -0.19459979925 -0.074170255019