<?xml version="1.0"?>
<VTKFile type="UnstructuredGrid" version="0.1" byte_order="LittleEndian" compressor="vtkZLibDataCompressor">
  <UnstructuredGrid>
    <FieldData>
      <DataArray type="Float64" Name="TIME" NumberOfTuples="1" format="ascii" RangeMin="1.2846081321" RangeMax="1.2846081321">
        1.2846081321
      </DataArray>
    </FieldData>
    <Piece NumberOfPoints="1000" NumberOfCells="0">
      <PointData>
        <DataArray type="Float64" Name="Damage" format="ascii" RangeMin="0" RangeMax="0.5081300813">
          0.024193548387 0.006711409396 0 0 0 0
          0 0.010204081633 0.046979865772 0.12903225806 0.006711409396 0.027932960894
          0 0 0 0 0 0
          0.033519553073 0.013422818792 0 0.055084745763 0.071428571429 0.040345821326
          0.014164305949 0.012987012987 0.040345821326 0.071428571429 0.055084745763 0.0051020408163
          0 0.067669172932 0.11239193084 0.1074168798 0.037688442211 0.034562211982
          0.1074168798 0.11239193084 0.067669172932 0 0 0.074349442379
          0.16147308782 0.16834170854 0.12376237624 0.11286681716 0.16834170854 0.16147308782
          0.074349442379 0 0 0.084459459459 0.2 0.25806451613
          0.33860045147 0.39211618257 0.25806451613 0.2 0.084459459459 0
          0 0.093984962406 0.25360230548 0.36061381074 0.41959798995 0.46774193548
          0.36061381074 0.25360230548 0.093984962406 0 0 0.10593220339
          0.31493506494 0.40057636888 0.4447592068 0.49090909091 0.40057636888 0.31493506494
          0.10593220339 0 0 0.17318435754 0.3686440678 0.43984962406
          0.44981412639 0.5 0.43984962406 0.3686440678 0.17318435754 0.006711409396
          0.016129032258 0.18791946309 0.36734693878 0.44343891403 0.46428571429 0.5081300813
          0.44343891403 0.36734693878 0.18791946309 0.016129032258 0.006711409396 0
          0 0 0 0 0.0037593984962 0.012711864407
          0.016759776536 0.046979865772 0 0.027906976744 0 0
          0 0 0 0 0.032558139535 0
          0 0.056338028169 0.072776280323 0.040669856459 0.014117647059 0.012931034483
          0.040669856459 0.072776280323 0.056338028169 0 0 0.06875
          0.11483253589 0.10828025478 0.0375782881 0.034416826004 0.10828025478 0.11483253589
          0.06875 0 0 0.074303405573 0.16235294118 0.16910229645
          0.12371134021 0.11257035647 0.16910229645 0.16235294118 0.074303405573 0
          0 0.084269662921 0.20043103448 0.25812619503 0.33771106942 0.39242685026
          0.25812619503 0.20043103448 0.084269662921 0 0 0.09375
          0.25358851675 0.36093418259 0.41962421712 0.46845124283 0.36093418259 0.25358851675
          0.09375 0 0 0.10563380282 0.3153638814 0.4019138756
          0.44470588235 0.49137931034 0.4019138756 0.3153638814 0.10563380282 0
          0 0.16744186047 0.36971830986 0.440625 0.44582043344 0.49719101124
          0.440625 0.36971830986 0.16744186047 0 0.013422818792 0.17877094972
          0.3686440678 0.44360902256 0.44981412639 0.5 0.43984962406 0.3686440678
          0.17877094972 0.006711409396 0 0 0 0
          0 0 0.0028818443804 0.0064935064935 0.012711864407 0.020408163265
          0 0.024647887324 0 0 0 0
          0 0 0.028169014085 0 0 0.051212938005
          0.06875 0.038817005545 0.012635379061 0.011666666667 0.038817005545 0.06875
          0.051212938005 0 0 0.064593301435 0.10905730129 0.10491803279
          0.036858974359 0.034023668639 0.10491803279 0.10905730129 0.064593301435 0
          0 0.070588235294 0.15523465704 0.16506410256 0.12283464567 0.11271676301
          0.16506410256 0.15523465704 0.070588235294 0 0 0.081896551724
          0.19333333333 0.25443786982 0.33959537572 0.38985313752 0.25443786982 0.19333333333
          0.081896551724 0 0 0.093301435407 0.24768946396 0.35573770492
          0.41987179487 0.46449704142 0.35573770492 0.24768946396 0.093301435407 0
          0 0.10781671159 0.30833333333 0.39556377079 0.4440433213 0.48666666667
          0.39556377079 0.30833333333 0.10781671159 0 0 0.16197183099
          0.35579514825 0.43062200957 0.44470588235 0.49137931034 0.43062200957 0.35579514825
          0.16197183099 0 0 0.16101694915 0.3538961039 0.42939481268
          0.4447592068 0.49090909091 0.42939481268 0.3538961039 0.16101694915 0
          0 0 0 0 0 0
          0 0.0028818443804 0.0075187969925 0 0 0.025
          0 0 0 0 0 0
          0.025 0 0 0.05023923445 0.068391866913 0.039344262295
          0.012820512821 0.011834319527 0.039344262295 0.068391866913 0.05023923445 0
          0 0.063694267516 0.10819672131 0.10465116279 0.036984352774 0.034120734908
          0.10465116279 0.10819672131 0.063694267516 0 0 0.070981210856
          0.15544871795 0.16500711238 0.12290502793 0.11282051282 0.16500711238 0.15544871795
          0.070981210856 0 0 0.082217973231 0.19378698225 0.25459317585
          0.33974358974 0.38981042654 0.25459317585 0.19378698225 0.082217973231 0
          0 0.093418259023 0.24918032787 0.35610465116 0.41963015647 0.46456692913
          0.35610465116 0.24918032787 0.093418259023 0 0 0.10765550239
          0.30868761553 0.39508196721 0.44391025641 0.48668639053 0.39508196721 0.30868761553
          0.10765550239 0 0 0.1625 0.35645933014 0.43099787686
          0.44467640919 0.4913957935 0.43099787686 0.35645933014 0.1625 0
          0 0.16165413534 0.35446685879 0.42966751918 0.44472361809 0.49078341014
          0.42966751918 0.35446685879 0.16165413534 0 0 0
          0 0 0 0 0 0
          0 0 0 0.02786377709 0 0
          0 0 0 0 0.02786377709 0
          0 0.054117647059 0.070397111913 0.040064102564 0.014173228346 0.013005780347
          0.040064102564 0.070397111913 0.054117647059 0 0 0.066805845511
          0.11057692308 0.106685633 0.037709497207 0.034615384615 0.106685633 0.11057692308
          0.066805845511 0 0 0.074226804124 0.16062992126 0.16759776536
          0.12362637363 0.11292346299 0.16759776536 0.16062992126 0.074226804124 0
          0 0.084427767355 0.19942196532 0.25769230769 0.33877038896 0.39145496536
          0.25769230769 0.19942196532 0.084427767355 0 0 0.093945720251
          0.25320512821 0.35988620199 0.41899441341 0.46666666667 0.35988620199 0.25320512821
          0.093945720251 0 0 0.10588235294 0.31407942238 0.39903846154
          0.44409448819 0.48988439306 0.39903846154 0.31407942238 0.10588235294 0
          0 0.16718266254 0.36705882353 0.43841336117 0.44536082474 0.49530956848
          0.43841336117 0.36705882353 0.16718266254 0 0 0.16728624535
          0.36543909348 0.43718592965 0.44554455446 0.49435665914 0.43718592965 0.36543909348
          0.16728624535 0 0 0 0 0
          0 0 0 0 0 0
          0 0.025280898876 0 0 0 0
          0 0 0.025280898876 0 0 0.049568965517
          0.066666666667 0.038461538462 0.013005780347 0.012016021362 0.038461538462 0.066666666667
          0.049568965517 0 0 0.06309751434 0.1050295858 0.10367454068
          0.037179487179 0.034360189573 0.10367454068 0.1050295858 0.06309751434 0
          0 0.071294559099 0.15462427746 0.1641025641 0.12296110414 0.11316397229
          0.1641025641 0.15462427746 0.071294559099 0 0 0.082616179002
          0.19359145527 0.25473933649 0.34064665127 0.38930481283 0.25473933649 0.19359145527
          0.082616179002 0 0 0.093690248566 0.24852071006 0.35564304462
          0.41923076923 0.46327014218 0.35564304462 0.24852071006 0.093690248566 0
          0 0.10775862069 0.30833333333 0.39349112426 0.4436416185 0.48598130841
          0.39349112426 0.30833333333 0.10775862069 0 0 0.16292134831
          0.35560344828 0.43021032505 0.44465290807 0.49053356282 0.43021032505 0.35560344828
          0.16292134831 0 0 0.16216216216 0.35324675325 0.42857142857
          0.44469525959 0.48962655602 0.42857142857 0.35324675325 0.16216216216 0
          0.0045248868778 0.0037593984962 0 0 0 0
          0 0 0 0 0 0.025
          0 0 0 0 0 0
          0.025 0 0 0.05023923445 0.068391866913 0.039344262295
          0.012820512821 0.011834319527 0.039344262295 0.068391866913 0.05023923445 0
          0 0.063694267516 0.10819672131 0.10465116279 0.036984352774 0.034120734908
          0.10465116279 0.10819672131 0.063694267516 0 0 0.070981210856
          0.15544871795 0.16500711238 0.12290502793 0.11282051282 0.16500711238 0.15544871795
          0.070981210856 0 0 0.082217973231 0.19378698225 0.25459317585
          0.33974358974 0.38981042654 0.25459317585 0.19378698225 0.082217973231 0
          0 0.093418259023 0.24918032787 0.35610465116 0.41963015647 0.46456692913
          0.35610465116 0.24918032787 0.093418259023 0 0 0.10765550239
          0.30868761553 0.39508196721 0.44391025641 0.48668639053 0.39508196721 0.30868761553
          0.10765550239 0 0 0.1625 0.35645933014 0.43099787686
          0.44467640919 0.4913957935 0.43099787686 0.35645933014 0.1625 0
          0 0.16165413534 0.35446685879 0.42966751918 0.44472361809 0.49078341014
          0.42966751918 0.35446685879 0.16165413534 0 0.025510204082 0.0084745762712
          0 0 0 0 0 0
          0 0 0.0042372881356 0.024647887324 0 0
          0 0 0 0 0.024647887324 0
          0 0.051212938005 0.06875 0.038817005545 0.012635379061 0.011666666667
          0.038817005545 0.06875 0.051212938005 0 0 0.064593301435
          0.10905730129 0.10491803279 0.036858974359 0.034023668639 0.10491803279 0.10905730129
          0.064593301435 0 0 0.070588235294 0.15523465704 0.16506410256
          0.12283464567 0.11271676301 0.16506410256 0.15523465704 0.070588235294 0
          0 0.081896551724 0.19333333333 0.25443786982 0.33959537572 0.38985313752
          0.25443786982 0.19333333333 0.081896551724 0 0 0.093301435407
          0.24768946396 0.35573770492 0.41987179487 0.46449704142 0.35573770492 0.24768946396
          0.093301435407 0 0 0.10781671159 0.30833333333 0.39556377079
          0.4440433213 0.48666666667 0.39556377079 0.30833333333 0.10781671159 0
          0 0.16197183099 0.35579514825 0.43062200957 0.44470588235 0.49137931034
          0.43062200957 0.35579514825 0.16197183099 0 0 0.16101694915
          0.3538961039 0.42939481268 0.4447592068 0.49090909091 0.42939481268 0.3538961039
          0.16101694915 0 0.040268456376 0.011173184358 0.0084745762712 0
          0 0 0 0 0 0.006711409396
          0.0055865921788 0.027906976744 0 0 0 0
          0 0 0.027906976744 0 0 0.056338028169
          0.072776280323 0.040669856459 0.014117647059 0.012931034483 0.040669856459 0.072776280323
          0.056338028169 0 0 0.06875 0.11483253589 0.10828025478
          0.0375782881 0.034416826004 0.10828025478 0.11483253589 0.06875 0
          0 0.074303405573 0.16235294118 0.16910229645 0.12371134021 0.11257035647
          0.16910229645 0.16235294118 0.074303405573 0 0 0.084269662921
          0.20043103448 0.25812619503 0.33771106942 0.39242685026 0.25812619503 0.20043103448
          0.084269662921 0 0 0.09375 0.25358851675 0.36093418259
          0.41962421712 0.46845124283 0.36093418259 0.25358851675 0.09375 0
          0 0.10563380282 0.3153638814 0.4019138756 0.44470588235 0.49137931034
          0.4019138756 0.3153638814 0.10563380282 0 0 0.16744186047
          0.36971830986 0.440625 0.44582043344 0.49719101124 0.440625 0.36971830986
          0.16744186047 0 0.006711409396 0.16759776536 0.3686440678 0.44360902256
          0.44981412639 0.5 0.43984962406 0.3686440678 0.17318435754 0.006711409396
          0.024193548387 0.046979865772 0.020408163265 0.0045248868778 0 0
          0 0 0 0.008064516129 0.020134228188 0.033519553073
          0.0042372881356 0 0 0 0 0
          0.027932960894 0 0.0051020408163 0.055084745763 0.071428571429 0.040345821326
          0.014164305949 0.012987012987 0.040345821326 0.071428571429 0.055084745763 0
          0 0.067669172932 0.11239193084 0.1074168798 0.037688442211 0.034562211982
          0.1074168798 0.11239193084 0.067669172932 0 0 0.074349442379
          0.16147308782 0.16834170854 0.12376237624 0.11286681716 0.16834170854 0.16147308782
          0.074349442379 0 0 0.084459459459 0.2 0.25806451613
          0.33860045147 0.39211618257 0.25806451613 0.2 0.084459459459 0
          0 0.093984962406 0.25360230548 0.36061381074 0.41959798995 0.46774193548
          0.36061381074 0.25360230548 0.093984962406 0 0 0.10593220339
          0.31493506494 0.40057636888 0.4447592068 0.49090909091 0.40057636888 0.31493506494
          0.10593220339 0 0.006711409396 0.16759776536 0.3686440678 0.43984962406
          0.44981412639 0.5 0.43984962406 0.3686440678 0.16759776536 0.006711409396
          0.024193548387 0.1744966443 0.36734693878 0.44343891403 0.46428571429 0.5081300813
          0.44343891403 0.36734693878 0.18120805369 0.024193548387
        </DataArray>
        <DataArray type="Float64" Name="Displacement" NumberOfComponents="3" format="ascii" RangeMin="0.28872943992" RangeMax="2.4682742328">
          -0.066156107574 1.9850021583 -0.41431971653 -0.14162000036 2.023800478 -0.30979183
          -0.22643784487 2.0564920398 -0.20753899413 -0.31299975401 2.0838305346 -0.10030693477
          -0.39896255063 2.1128126216 0.0073248919296 -0.48352082572 2.1453536776 0.11007483349
          -0.56722683938 2.1744662646 0.21085150811 -0.64981180306 2.2041336806 0.31450289507
          -0.72705219536 2.2381062193 0.4286285922 -0.81296860066 2.2703712934 0.52618811561
          -0.087685986372 1.7815741675 -0.3728155803 -0.17005325763 1.8129399502 -0.27001903318
          -0.25313442072 1.8443322487 -0.16777198307 -0.34049893321 1.8735527024 -0.061371846429
          -0.4251025869 1.9043938112 0.043727814248 -0.51028136933 1.9354277027 0.14482054577
          -0.59295218671 1.9649892612 0.24795254382 -0.67468171486 1.9977191948 0.35030635896
          -0.76306607348 2.0295591673 0.4559603259 -0.85175774117 2.0590385268 0.55416107744
          -0.11340258576 1.5698900205 -0.33793296509 -0.19963209726 1.6009646872 -0.23230366563
          -0.28570053487 1.6305301414 -0.12961083094 -0.36752171307 1.6615390696 -0.025051241632
          -0.45456866249 1.6929766014 0.077688875453 -0.53765899217 1.7212669121 0.18234894835
          -0.62408262422 1.7543231307 0.28408572392 -0.70603614925 1.7859883832 0.38840641144
          -0.79372604509 1.8131784529 0.49227804198 -0.8775208223 1.8409167235 0.59952974217
          -0.14568695586 1.3573245352 -0.29862662466 -0.22798802916 1.3881297889 -0.19766725628
          -0.31445560171 1.4190443271 -0.090073871106 -0.39759821823 1.4505909535 0.011421807267
          -0.48438249482 1.4824880246 0.11449321646 -0.57128610061 1.5128205983 0.21844588139
          -0.65370292237 1.5423319758 0.32172018752 -0.73773755061 1.5733211553 0.42311385437
          -0.82295280643 1.603465703 0.52951906522 -0.90523781766 1.6338369485 0.63600074936
          -0.17382308514 1.1464847944 -0.25899030775 -0.25747803236 1.1769041194 -0.15778305957
          -0.34382871562 1.2085293648 -0.05463704797 -0.42870134534 1.2396238133 0.048839839248
          -0.513766582 1.2717053913 0.15036108826 -0.59792517811 1.300243246 0.25548122701
          -0.68193508008 1.3328412148 0.36035633493 -0.76752136449 1.3638430532 0.46225332687
          -0.8530532686 1.3904785326 0.56724276439 -0.93672774301 1.4229065859 0.67018292391
          -0.20531099074 0.93514354346 -0.21849808838 -0.28743700468 0.96380933224 -0.11917493607
          -0.37242799912 0.99710699077 -0.0156316719 -0.45622044429 1.0268661587 0.086462550954
          -0.53952370281 1.0580209727 0.19344123486 -0.62752302904 1.08805915 0.29072565867
          -0.71265153513 1.1209053696 0.39643949013 -0.79825725356 1.152717896 0.49889372605
          -0.88421731733 1.1798484095 0.60077236624 -0.96944191671 1.2105327954 0.7058956164
          -0.23482694964 0.72535897935 -0.18038719163 -0.31569440298 0.75322515598 -0.081024264674
          -0.40194257069 0.78594778168 0.021692223295 -0.48690252254 0.81755518561 0.12435016163
          -0.56855291894 0.84796261055 0.22981131727 -0.65793100253 0.87830637374 0.32770822879
          -0.74245536412 0.91034168492 0.43147581985 -0.82795889164 0.93895332213 0.53561130473
          -0.91344193132 0.96962053961 0.63542008289 -0.99822251081 0.99993228352 0.74165545215
          -0.26160254126 0.50965150283 -0.14220978789 -0.3447288005 0.54120746327 -0.043600246385
          -0.43002498591 0.57246315832 0.058786219997 -0.51382727147 0.60329289186 0.16488697968
          -0.59888368326 0.63421743882 0.26596030409 -0.68944230201 0.66751518358 0.36846243214
          -0.77278696902 0.69845284541 0.47049124651 -0.85752148067 0.72856967759 0.57138321034
          -0.94246865142 0.75697912079 0.67691058996 -1.0295021517 0.78882173101 0.77946000906
          -0.2878691075 0.30160614012 -0.10516197635 -0.37168012666 0.33024080706 -0.0022434437711
          -0.45597662059 0.36065352164 0.10112288183 -0.54063058651 0.39075759438 0.2017595185
          -0.62341585117 0.42570364669 0.30703688963 -0.71577481971 0.456422694 0.40220771192
          -0.80327426328 0.48702467754 0.50578779851 -0.88791399704 0.51689191013 0.6081756003
          -0.97342979288 0.54689492589 0.71202871966 -1.0557054565 0.58220974147 0.81336154639
          -0.32488171017 0.091447342154 -0.057472548617 -0.39567057816 0.10659118448 0.037060809279
          -0.48188723966 0.14834162149 0.14348708871 -0.56249039597 0.17953597204 0.24747680687
          -0.6608999743 0.21427174409 0.33525711642 -0.74875774508 0.24299022265 0.44664431833
          -0.83460713844 0.27557063684 0.53559724127 -0.9177176643 0.30654547796 0.64634577547
          -0.99785799552 0.33099545828 0.75378368437 -1.0836450861 0.37373969305 0.86116446825
          0.051943124316 1.9581853008 -0.53631056737 -0.039692970808 1.9850617997 -0.43501847911
          -0.12301805146 2.0210564418 -0.3273957505 -0.206996292 2.0511005924 -0.22414084966
          -0.28875238631 2.0808966803 -0.12095280781 -0.37438185739 2.1110051663 -0.018219072326
          -0.45817143557 2.1413820733 0.084717994299 -0.54338202853 2.170008806 0.19047846011
          -0.62472457495 2.2022953228 0.29033798916 -0.71201768103 2.22788554 0.40254768206
          0.015993676914 1.7472452769 -0.4988188541 -0.066961769456 1.7791792864 -0.39612876742
          -0.15115707383 1.8068140875 -0.29147026684 -0.23558992634 1.8386211192 -0.19017875059
          -0.32041229984 1.8683416133 -0.086465181294 -0.40387783944 1.8988555704 0.017000006145
          -0.4893811731 1.9301644924 0.12235832895 -0.57263245835 1.9583659975 0.22522559275
          -0.6586316521 1.9914513492 0.32908107753 -0.74609172302 2.0219650131 0.43174455812
          -0.011728446769 1.5343584815 -0.46318658763 -0.096628763687 1.563808454 -0.36085002627
          -0.17941795685 1.5942358574 -0.25575987144 -0.2655626214 1.6272271405 -0.15307834795
          -0.34912495016 1.6579917814 -0.050012088858 -0.43390316003 1.6881474262 0.054544338265
          -0.51811702941 1.7181497592 0.15880245291 -0.60216441104 1.7476946164 0.26157338482
          -0.68844838141 1.7791454712 0.36593957878 -0.77400030057 1.8091755716 0.46936697858
          -0.04339625751 1.3216192645 -0.42385982634 -0.1261158353 1.352950695 -0.3212659766
          -0.20941231919 1.3839389259 -0.21911819641 -0.29578151221 1.4153440365 -0.1153695191
          -0.37921841432 1.4458949656 -0.01237189339 -0.46350645992 1.4763007906 0.091198394927
          -0.54865972827 1.50749473 0.19578379423 -0.63346944406 1.5376693997 0.29830774583
          -0.71737379777 1.5667942552 0.40319897318 -0.80417713779 1.5954204768 0.50596097994
          -0.07002453444 1.1094517418 -0.38810238868 -0.15434501379 1.1415048307 -0.28423206047
          -0.2396654201 1.1723332267 -0.18070021734 -0.32410231922 1.2028169169 -0.07789923233
          -0.40808962524 1.234306029 0.024593175277 -0.49275700196 1.2653664205 0.12832411449
          -0.57826498378 1.2948665626 0.23239589503 -0.66414554013 1.3257383262 0.33507827109
          -0.7480139488 1.355772993 0.43922442487 -0.83237810201 1.384931925 0.5421683194
          -0.099557745725 0.89894549188 -0.34881906323 -0.18325648475 0.92935971567 -0.2465379024
          -0.26727149363 0.95998555846 -0.143582898 -0.35291042026 0.99140976528 -0.041076783799
          -0.43849305283 1.0213574134 0.062979894631 -0.52358513582 1.0543628091 0.16522585134
          -0.60907132102 1.084286089 0.26878318375 -0.69485265641 1.1133544538 0.37147410613
          -0.77779204988 1.1433839762 0.47653080245 -0.86171662719 1.1724914208 0.57941968658
          -0.12865874073 0.68504723288 -0.31093869721 -0.21284101916 0.71769271483 -0.2092115318
          -0.29656260575 0.75005635892 -0.10471323882 -0.3805913666 0.78171348967 -0.0011954268979
          -0.4658775751 0.81066776509 0.10222249096 -0.55377391699 0.84144587451 0.20011670847
          -0.6381290628 0.87330990289 0.30416891402 -0.72370872268 0.90303399973 0.40789750525
          -0.80710407839 0.93271758455 0.51234605473 -0.89078317056 0.96151269257 0.61651372944
          -0.15872881579 0.47473523176 -0.27228804696 -0.2406911354 0.50600902787 -0.16924810741
          -0.32668153112 0.53776117697 -0.066104050058 -0.40841428532 0.56828857378 0.036628413037
          -0.49275065123 0.59921892687 0.13970203435 -0.58313232089 0.63020899764 0.23734086311
          -0.66744857636 0.65997052371 0.34186096302 -0.75349160467 0.69119641362 0.44610500013
          -0.8379922437 0.72061234537 0.54910201699 -0.92514876365 0.75085464378 0.65071418018
          -0.18452830094 0.26039833595 -0.23421200569 -0.26937063242 0.29481348272 -0.13236751056
          -0.35380043592 0.32497504279 -0.029568125015 -0.43606856267 0.35729677627 0.076397080331
          -0.52205325838 0.38936282627 0.17813654345 -0.61479126083 0.42040288803 0.27458036638
          -0.69830408502 0.44923103746 0.37691787439 -0.78355039803 0.47930041161 0.4823746624
          -0.86819288845 0.51082531256 0.58636754831 -0.95371694259 0.54041449738 0.69035303755
          -0.21309484512 0.045958949163 -0.1893226121 -0.29742176641 0.083232179373 -0.088745320575
          -0.3807807286 0.11472970274 0.014398422377 -0.46466322984 0.14060827651 0.11491436269
          -0.55167760803 0.17730201852 0.21668744007 -0.64260409484 0.20575689563 0.31673412031
          -0.73182489793 0.2372665342 0.41436521316 -0.81588905008 0.26877776585 0.51407722169
          -0.90111450747 0.29503247865 0.61922051103 -0.98558981743 0.33024083844 0.72297145088
          0.14919601907 1.9209862202 -0.66406430329 0.065982208724 1.9556500468 -0.55814819038
          -0.018718088376 1.9826167016 -0.45658934458 -0.10515004584 2.0189071281 -0.35405147411
          -0.18785205619 2.0443714691 -0.24995518851 -0.27193740464 2.0741811413 -0.14490333878
          -0.35801841556 2.1061380112 -0.041104468954 -0.44143270035 2.1343250839 0.062226613755
          -0.525621723 2.1641199719 0.16859539266 -0.60694588319 2.1997871418 0.27301520034
          0.12124114353 1.7097762535 -0.62739612169 0.035421073642 1.7409160086 -0.52232521496
          -0.047591637592 1.7706753098 -0.41965738963 -0.13345756863 1.8005010864 -0.31630396735
          -0.21570548709 1.8329494361 -0.21380215686 -0.30191502713 1.8634109668 -0.1091308459
          -0.38609458201 1.8934668862 -0.0057037919612 -0.47086867371 1.9236997352 0.099184667575
          -0.55531321002 1.9539467918 0.20216675999 -0.6407049862 1.9833098125 0.30747138559
          0.092082943724 1.4968111801 -0.5886968295 0.0073243067106 1.529080185 -0.48578061688
          -0.077126912311 1.5593861831 -0.38246639763 -0.16224089044 1.5904502886 -0.27916136697
          -0.24684389966 1.6211621615 -0.17592066127 -0.33114887885 1.6514741128 -0.072065845668
          -0.41657616737 1.6817970792 0.031331678549 -0.50073968625 1.7119850509 0.13517567206
          -0.58491345066 1.7419405227 0.24041556206 -0.66805763584 1.7720348948 0.34287611679
          0.065801314671 1.2851882336 -0.55205535464 -0.022318696435 1.3172689195 -0.44820045346
          -0.10590129195 1.3477149362 -0.34524936228 -0.1905075795 1.37823174 -0.24248113218
          -0.27525986932 1.4096041806 -0.13919538318 -0.35998669641 1.4402244183 -0.035371442045
          -0.44526609472 1.4695798928 0.067898980567 -0.52946242099 1.5009771306 0.171158969
          -0.61463614518 1.528373908 0.27427014471 -0.69585586836 1.5593094272 0.37996725066
          0.034822747815 1.0740007331 -0.51323386185 -0.051587516175 1.1046958956 -0.41055613557
          -0.13490872332 1.1361222877 -0.30844175727 -0.21983526019 1.1664919859 -0.20408305362
          -0.3049722172 1.198417094 -0.10255506186 -0.3897974777 1.2280726523 0.0013586148703
          -0.47470874696 1.2581570872 0.10451663635 -0.55944249694 1.2887386554 0.20845149531
          -0.64541455471 1.3188483884 0.31230340316 -0.72825347168 1.3492664661 0.41576598254
          0.0054494264125 0.86286201986 -0.47684218649 -0.079295596069 0.89246803048 -0.37322700237
          -0.16381345464 0.92317183386 -0.27143008463 -0.2484973402 0.95483740656 -0.16793760494
          -0.3324064719 0.9860027744 -0.063448707881 -0.42007955226 1.0171793605 0.038934172288
          -0.50501567966 1.0486036441 0.14313608448 -0.58834917209 1.0763587357 0.24494021015
          -0.6734387623 1.1064850015 0.34884511843 -0.75874058202 1.1372498215 0.45264008568
          -0.024404311245 0.65126236272 -0.43897984762 -0.10890824785 0.68120225305 -0.33551532717
          -0.19212119327 0.71245298567 -0.23250980034 -0.27691481684 0.74369122992 -0.129571283
          -0.36202897872 0.77491405815 -0.026991584133 -0.45057579574 0.80624842326 0.075813037743
          -0.53531742797 0.83562763803 0.17686017374 -0.61933101852 0.86526009486 0.28059481043
          -0.70506107404 0.89507692595 0.38345834314 -0.78857869438 0.92606333332 0.4891478724
          -0.052929711433 0.4401908996 -0.40132375515 -0.13676433185 0.46926175248 -0.29943030923
          -0.21768993038 0.50315017623 -0.19445385473 -0.30562632202 0.53183737335 -0.09148496801
          -0.38891219813 0.5619432209 0.013819939023 -0.48125216423 0.59270867996 0.11074989853
          -0.56395407892 0.62368328849 0.21608196495 -0.64734381377 0.6553492129 0.31732055961
          -0.73203434537 0.68438619703 0.42332761594 -0.81883762619 0.71515826655 0.52595293726
          -0.081413333894 0.22713581185 -0.36226381771 -0.16577631214 0.25805097934 -0.26006539584
          -0.25020938348 0.29029391465 -0.15638081046 -0.33295469003 0.32134108277 -0.051612356511
          -0.41701287267 0.35226288634 0.050346803232 -0.51122217923 0.38261083263 0.14927839144
          -0.59510862462 0.41311964972 0.25227997681 -0.67997513145 0.4435790803 0.3553685138
          -0.76380474525 0.4740484333 0.45977039071 -0.84800000724 0.50238277918 0.56239434808
          -0.10832364687 0.015103110756 -0.32506997845 -0.19365648619 0.048440924174 -0.22185367888
          -0.27724236774 0.076781030696 -0.11525375914 -0.36153292639 0.11212282477 -0.011233927755
          -0.44546852955 0.14264091449 0.090369856435 -0.54114957636 0.17124078949 0.18650959514
          -0.62528329738 0.20138845614 0.28674096715 -0.70929422252 0.22908464037 0.39220360326
          -0.79365422269 0.26589875598 0.49886557683 -0.88113370888 0.29311981081 0.59872910902
          0.2584924297 1.8966566181 -0.78846215693 0.16869053955 1.9172293966 -0.68803935012
          0.085993390994 1.9458597189 -0.58275942851 0.0027510333247 1.9777740271 -0.48049496938
          -0.082424311799 2.0057051269 -0.37666770853 -0.1687776646 2.0378400739 -0.2722351446
          -0.25288200325 2.0671785602 -0.16912088513 -0.3369408786 2.0970818702 -0.06413433133
          -0.42241576035 2.1289365542 0.037744861116 -0.50924312048 2.1626193611 0.13957390517
          0.22481186404 1.6727615926 -0.75435486199 0.13902209734 1.705351586 -0.65071967212
          0.055805182258 1.734356941 -0.54772766599 -0.028670786853 1.7656668378 -0.44312607131
          -0.113181538 1.7962387824 -0.33881584464 -0.19768766339 1.8263184015 -0.235412354
          -0.28187854746 1.8566199116 -0.13150585459 -0.3673937382 1.8876941108 -0.028445699325
          -0.45135568098 1.9176149253 0.075904255614 -0.53707993161 1.946113658 0.18166161265
          0.19645302488 1.4600201305 -0.71605206454 0.11069014111 1.4929701003 -0.61332323255
          0.027407229129 1.5243532146 -0.50992852712 -0.057386194061 1.5549436804 -0.40673540615
          -0.14214909567 1.5852671942 -0.30312305752 -0.22681365475 1.6157165157 -0.19929320621
          -0.31068594602 1.6463912764 -0.095848547794 -0.39686283509 1.6756137568 0.0081353343755
          -0.4811512011 1.7043381791 0.11256637655 -0.56589590218 1.7345547906 0.21717273123
          0.16647241455 1.2493395303 -0.67993990625 0.082273804101 1.2807931673 -0.57585252056
          -0.0021433346563 1.3121046841 -0.47279093012 -0.086954810195 1.3425547919 -0.36947801335
          -0.1716415119 1.3733309244 -0.26605912507 -0.25617462563 1.4041066281 -0.16244716583
          -0.34097838916 1.4340298214 -0.058761346277 -0.42616573751 1.4641495912 0.044505072493
          -0.51059301876 1.4934160036 0.14881043165 -0.59568427942 1.5233272179 0.25202860526
          0.13734133077 1.0386837679 -0.64442040417 0.0533501591 1.0699050868 -0.53990298298
          -0.031564259569 1.1001275586 -0.43541554702 -0.11610250418 1.1302806093 -0.33036547695
          -0.20082788847 1.1615523056 -0.22893591916 -0.28600732225 1.1923533247 -0.12548460834
          -0.37111230622 1.2220012907 -0.022407800407 -0.45506486938 1.2525886019 0.082124254783
          -0.54006373333 1.2836017241 0.18402418637 -0.62759491627 1.3131238686 0.29041244859
          0.10845864795 0.82703202076 -0.6054771473 0.02405168144 0.85816782363 -0.501184619
          -0.060364142199 0.88827855983 -0.39802057181 -0.14473111747 0.91897365097 -0.29482399041
          -0.22826182426 0.94890547898 -0.19069278314 -0.31654292959 0.98077428274 -0.087668676974
          -0.4010296687 1.0115764744 0.015643191178 -0.48578832364 1.0405504664 0.1180582334