<?xml version="1.0"?>
<VTKFile type="UnstructuredGrid" version="0.1" byte_order="LittleEndian" compressor="vtkZLibDataCompressor">
  <UnstructuredGrid>
    <FieldData>
      <DataArray type="Float64" Name="TIME" NumberOfTuples="1" format="ascii" RangeMin="1.0966512612" RangeMax="1.0966512612">
        1.0966512612
      </DataArray>
    </FieldData>
    <Piece NumberOfPoints="1000" NumberOfCells="0">
      <PointData>
        <DataArray type="Float64" Name="Damage" format="ascii" RangeMin="0" RangeMax="0.5081300813">
          0.008064516129 0.006711409396 0 0 0 0
          0 0 0 0 0 0.027932960894
          0 0 0 0 0 0
          0.027932960894 0 0 0.055084745763 0.071428571429 0.040345821326
          0.014164305949 0.012987012987 0.040345821326 0.071428571429 0.055084745763 0
          0 0.067669172932 0.11239193084 0.1074168798 0.037688442211 0.034562211982
          0.1074168798 0.11239193084 0.067669172932 0 0 0.074349442379
          0.16147308782 0.16834170854 0.12376237624 0.11286681716 0.16834170854 0.16147308782
          0.074349442379 0 0 0.084459459459 0.2 0.25806451613
          0.33860045147 0.39211618257 0.25806451613 0.2 0.084459459459 0
          0 0.093984962406 0.25360230548 0.36061381074 0.41959798995 0.46774193548
          0.36061381074 0.25360230548 0.093984962406 0 0 0.10593220339
          0.31493506494 0.40057636888 0.4447592068 0.49090909091 0.40057636888 0.31493506494
          0.10593220339 0 0 0.17318435754 0.3686440678 0.43984962406
          0.44981412639 0.5 0.43984962406 0.3686440678 0.17318435754 0.006711409396
          0.016129032258 0.18791946309 0.36734693878 0.44343891403 0.46428571429 0.5081300813
          0.44343891403 0.36734693878 0.18791946309 0.016129032258 0 0
          0 0 0 0 0 0
          0 0 0 0.027906976744 0 0
          0 0 0 0 0.027906976744 0
          0 0.056338028169 0.072776280323 0.040669856459 0.014117647059 0.012931034483
          0.040669856459 0.072776280323 0.056338028169 0 0 0.06875
          0.11483253589 0.10828025478 0.0375782881 0.034416826004 0.10828025478 0.11483253589
          0.06875 0 0 0.074303405573 0.16235294118 0.16910229645
          0.12371134021 0.11257035647 0.16910229645 0.16235294118 0.074303405573 0
          0 0.084269662921 0.20043103448 0.25812619503 0.33771106942 0.39242685026
          0.25812619503 0.20043103448 0.084269662921 0 0 0.09375
          0.25358851675 0.36093418259 0.41962421712 0.46845124283 0.36093418259 0.25358851675
          0.09375 0 0 0.10563380282 0.3153638814 0.4019138756
          0.44470588235 0.49137931034 0.4019138756 0.3153638814 0.10563380282 0
          0 0.16744186047 0.36971830986 0.440625 0.44582043344 0.49719101124
          0.440625 0.36971830986 0.16744186047 0 0.013422818792 0.17877094972
          0.3686440678 0.44360902256 0.44981412639 0.5 0.43984962406 0.3686440678
          0.17877094972 0.006711409396 0 0 0 0
          0 0 0 0 0 0
          0 0.024647887324 0 0 0 0
          0 0 0.024647887324 0 0 0.051212938005
          0.06875 0.038817005545 0.012635379061 0.011666666667 0.038817005545 0.06875
          0.051212938005 0 0 0.064593301435 0.10905730129 0.10491803279
          0.036858974359 0.034023668639 0.10491803279 0.10905730129 0.064593301435 0
          0 0.070588235294 0.15523465704 0.16506410256 0.12283464567 0.11271676301
          0.16506410256 0.15523465704 0.070588235294 0 0 0.081896551724
          0.19333333333 0.25443786982 0.33959537572 0.38985313752 0.25443786982 0.19333333333
          0.081896551724 0 0 0.093301435407 0.24768946396 0.35573770492
          0.41987179487 0.46449704142 0.35573770492 0.24768946396 0.093301435407 0
          0 0.10781671159 0.30833333333 0.39556377079 0.4440433213 0.48666666667
          0.39556377079 0.30833333333 0.10781671159 0 0 0.16197183099
          0.35579514825 0.43062200957 0.44470588235 0.49137931034 0.43062200957 0.35579514825
          0.16197183099 0 0 0.16101694915 0.3538961039 0.42939481268
          0.4447592068 0.49090909091 0.42939481268 0.3538961039 0.16101694915 0
          0 0 0 0 0 0
          0 0 0 0 0 0.025
          0 0 0 0 0 0
          0.025 0 0 0.05023923445 0.068391866913 0.039344262295
          0.012820512821 0.011834319527 0.039344262295 0.068391866913 0.05023923445 0
          0 0.063694267516 0.10819672131 0.10465116279 0.036984352774 0.034120734908
          0.10465116279 0.10819672131 0.063694267516 0 0 0.070981210856
          0.15544871795 0.16500711238 0.12290502793 0.11282051282 0.16500711238 0.15544871795
          0.070981210856 0 0 0.082217973231 0.19378698225 0.25459317585
          0.33974358974 0.38981042654 0.25459317585 0.19378698225 0.082217973231 0
          0 0.093418259023 0.24918032787 0.35610465116 0.41963015647 0.46456692913
          0.35610465116 0.24918032787 0.093418259023 0 0 0.10765550239
          0.30868761553 0.39508196721 0.44391025641 0.48668639053 0.39508196721 0.30868761553
          0.10765550239 0 0 0.1625 0.35645933014 0.43099787686
          0.44467640919 0.4913957935 0.43099787686 0.35645933014 0.1625 0
          0 0.16165413534 0.35446685879 0.42966751918 0.44472361809 0.49078341014
          0.42966751918 0.35446685879 0.16165413534 0 0 0
          0 0 0 0 0 0
          0 0 0 0.02786377709 0 0
          0 0 0 0 0.02786377709 0
          0 0.054117647059 0.070397111913 0.040064102564 0.014173228346 0.013005780347
          0.040064102564 0.070397111913 0.054117647059 0 0 0.066805845511
          0.11057692308 0.106685633 0.037709497207 0.034615384615 0.106685633 0.11057692308
          0.066805845511 0 0 0.074226804124 0.16062992126 0.16759776536
          0.12362637363 0.11292346299 0.16759776536 0.16062992126 0.074226804124 0
          0 0.084427767355 0.19942196532 0.25769230769 0.33877038896 0.39145496536
          0.25769230769 0.19942196532 0.084427767355 0 0 0.093945720251
          0.25320512821 0.35988620199 0.41899441341 0.46666666667 0.35988620199 0.25320512821
          0.093945720251 0 0 0.10588235294 0.31407942238 0.39903846154
          0.44409448819 0.48988439306 0.39903846154 0.31407942238 0.10588235294 0
          0 0.16718266254 0.36705882353 0.43841336117 0.44536082474 0.49530956848
          0.43841336117 0.36705882353 0.16718266254 0 0 0.16728624535
          0.36543909348 0.43718592965 0.44554455446 0.49435665914 0.43718592965 0.36543909348
          0.16728624535 0 0 0 0 0
          0 0 0 0 0 0
          0 0.025280898876 0 0 0 0
          0 0 0.025280898876 0 0 0.049568965517
          0.066666666667 0.038461538462 0.013005780347 0.012016021362 0.038461538462 0.066666666667
          0.049568965517 0 0 0.06309751434 0.1050295858 0.10367454068
          0.037179487179 0.034360189573 0.10367454068 0.1050295858 0.06309751434 0
          0 0.071294559099 0.15462427746 0.1641025641 0.12296110414 0.11316397229
          0.1641025641 0.15462427746 0.071294559099 0 0 0.082616179002
          0.19359145527 0.25473933649 0.34064665127 0.38930481283 0.25473933649 0.19359145527
          0.082616179002 0 0 0.093690248566 0.24852071006 0.35564304462
          0.41923076923 0.46327014218 0.35564304462 0.24852071006 0.093690248566 0
          0 0.10775862069 0.30833333333 0.39349112426 0.4436416185 0.48598130841
          0.39349112426 0.30833333333 0.10775862069 0 0 0.16292134831
          0.35560344828 0.43021032505 0.44465290807 0.49053356282 0.43021032505 0.35560344828
          0.16292134831 0 0 0.16216216216 0.35324675325 0.42857142857
          0.44469525959 0.48962655602 0.42857142857 0.35324675325 0.16216216216 0
          0 0 0 0 0 0
          0 0 0 0 0 0.025
          0 0 0 0 0 0
          0.025 0 0 0.05023923445 0.068391866913 0.039344262295
          0.012820512821 0.011834319527 0.039344262295 0.068391866913 0.05023923445 0
          0 0.063694267516 0.10819672131 0.10465116279 0.036984352774 0.034120734908
          0.10465116279 0.10819672131 0.063694267516 0 0 0.070981210856
          0.15544871795 0.16500711238 0.12290502793 0.11282051282 0.16500711238 0.15544871795
          0.070981210856 0 0 0.082217973231 0.19378698225 0.25459317585
          0.33974358974 0.38981042654 0.25459317585 0.19378698225 0.082217973231 0
          0 0.093418259023 0.24918032787 0.35610465116 0.41963015647 0.46456692913
          0.35610465116 0.24918032787 0.093418259023 0 0 0.10765550239
          0.30868761553 0.39508196721 0.44391025641 0.48668639053 0.39508196721 0.30868761553
          0.10765550239 0 0 0.1625 0.35645933014 0.43099787686
          0.44467640919 0.4913957935 0.43099787686 0.35645933014 0.1625 0
          0 0.16165413534 0.35446685879 0.42966751918 0.44472361809 0.49078341014
          0.42966751918 0.35446685879 0.16165413534 0 0 0
          0 0 0 0 0 0
          0 0 0 0.024647887324 0 0
          0 0 0 0 0.024647887324 0
          0 0.051212938005 0.06875 0.038817005545 0.012635379061 0.011666666667
          0.038817005545 0.06875 0.051212938005 0 0 0.064593301435
          0.10905730129 0.10491803279 0.036858974359 0.034023668639 0.10491803279 0.10905730129
          0.064593301435 0 0 0.070588235294 0.15523465704 0.16506410256
          0.12283464567 0.11271676301 0.16506410256 0.15523465704 0.070588235294 0
          0 0.081896551724 0.19333333333 0.25443786982 0.33959537572 0.38985313752
          0.25443786982 0.19333333333 0.081896551724 0 0 0.093301435407
          0.24768946396 0.35573770492 0.41987179487 0.46449704142 0.35573770492 0.24768946396
          0.093301435407 0 0 0.10781671159 0.30833333333 0.39556377079
          0.4440433213 0.48666666667 0.39556377079 0.30833333333 0.10781671159 0
          0 0.16197183099 0.35579514825 0.43062200957 0.44470588235 0.49137931034
          0.43062200957 0.35579514825 0.16197183099 0 0 0.16101694915
          0.3538961039 0.42939481268 0.4447592068 0.49090909091 0.42939481268 0.3538961039
          0.16101694915 0 0 0 0 0
          0 0 0 0 0 0
          0 0.027906976744 0 0 0 0
          0 0 0.027906976744 0 0 0.056338028169
          0.072776280323 0.040669856459 0.014117647059 0.012931034483 0.040669856459 0.072776280323
          0.056338028169 0 0 0.06875 0.11483253589 0.10828025478
          0.0375782881 0.034416826004 0.10828025478 0.11483253589 0.06875 0
          0 0.074303405573 0.16235294118 0.16910229645 0.12371134021 0.11257035647
          0.16910229645 0.16235294118 0.074303405573 0 0 0.084269662921
          0.20043103448 0.25812619503 0.33771106942 0.39242685026 0.25812619503 0.20043103448
          0.084269662921 0 0 0.09375 0.25358851675 0.36093418259
          0.41962421712 0.46845124283 0.36093418259 0.25358851675 0.09375 0
          0 0.10563380282 0.3153638814 0.4019138756 0.44470588235 0.49137931034
          0.4019138756 0.3153638814 0.10563380282 0 0 0.16744186047
          0.36971830986 0.440625 0.44582043344 0.49719101124 0.440625 0.36971830986
          0.16744186047 0 0.006711409396 0.16759776536 0.3686440678 0.43984962406
          0.44609665428 0.49662162162 0.43984962406 0.3686440678 0.17318435754 0.006711409396
          0 0 0 0 0 0
          0 0 0 0 0 0.027932960894
          0 0 0 0 0 0
          0.027932960894 0 0 0.055084745763 0.071428571429 0.040345821326
          0.014164305949 0.012987012987 0.040345821326 0.071428571429 0.055084745763 0
          0 0.067669172932 0.11239193084 0.1074168798 0.037688442211 0.034562211982
          0.1074168798 0.11239193084 0.067669172932 0 0 0.074349442379
          0.16147308782 0.16834170854 0.12376237624 0.11286681716 0.16834170854 0.16147308782
          0.074349442379 0 0 0.084459459459 0.2 0.25806451613
          0.33860045147 0.39211618257 0.25806451613 0.2 0.084459459459 0
          0 0.093984962406 0.25360230548 0.36061381074 0.41959798995 0.46774193548
          0.36061381074 0.25360230548 0.093984962406 0 0 0.10593220339
          0.31493506494 0.40057636888 0.4447592068 0.49090909091 0.40057636888 0.31493506494
          0.10593220339 0 0 0.16759776536 0.3686440678 0.43984962406
          0.44981412639 0.5 0.43984962406 0.3686440678 0.16759776536 0.006711409396
          0.016129032258 0.1744966443 0.36734693878 0.44343891403 0.45535714286 0.50406504065
          0.44343891403 0.36734693878 0.18120805369 0.024193548387
        </DataArray>
        <DataArray type="Float64" Name="Displacement" NumberOfComponents="3" format="ascii" RangeMin="0.64975394197" RangeMax="3.0187628782">
          -0.051415881878 2.5647612794 -0.33428608927 -0.12425006355 2.6018667094 -0.23522830621
          -0.21115438122 2.63362307 -0.12893957894 -0.29546535221 2.6628728913 -0.024669544499
          -0.38602503293 2.6930089569 0.080094163862 -0.47337072583 2.7210276152 0.18460029401
          -0.5541294522 2.7535637183 0.2866987535 -0.63414969847 2.7891295463 0.39142931358
          -0.71194168245 2.8210403441 0.49172180244 -0.80805978951 2.8455761265 0.60221690413
          -0.075474453416 2.3582658599 -0.29636888131 -0.15867991935 2.3899709849 -0.19381949195
          -0.24311414173 2.4196759322 -0.089419321504 -0.32776554924 2.4502032309 0.013399756999
          -0.4096868256 2.4836902959 0.11595615451 -0.49373856712 2.5137433892 0.21903870377
          -0.57954957247 2.5450632205 0.32298055496 -0.66560397336 2.5745221033 0.42624811734
          -0.75117567751 2.6063455346 0.53043798429 -0.83541473711 2.6339985657 0.63664260431
          -0.10028370438 2.1462483517 -0.26049305826 -0.1860265252 2.177550943 -0.15724677828
          -0.27016023467 2.2082789081 -0.052049746154 -0.35355709685 2.2400027389 0.049983500251
          -0.43966318976 2.2704808593 0.15382483365 -0.52253480497 2.3037118135 0.25684839657
          -0.60756339678 2.3314042399 0.35984756054 -0.69243977303 2.3624427608 0.4645115625
          -0.77729620083 2.3952320091 0.56970752581 -0.85964564899 2.425911476 0.66992678073
          -0.129537039 1.935560543 -0.22076810306 -0.21342531978 1.9656954778 -0.11876956611
          -0.29822079116 1.9971522813 -0.014642780196 -0.38347066646 2.0281573885 0.087765663099
          -0.46720179594 2.0599737892 0.1900563336 -0.55302520129 2.0909653071 0.29439839736
          -0.63689291065 2.1218339124 0.3982902065 -0.7214180814 2.1511414365 0.50019805922
          -0.80503832137 2.1816982959 0.60530391546 -0.89257483724 2.2130102921 0.70639037525
          -0.15629745413 1.7215005865 -0.18707907245 -0.24303598632 1.7539244278 -0.080959608398
          -0.3273512991 1.7857031329 0.022777719268 -0.41208192892 1.8149076718 0.12592045194
          -0.49723085388 1.8477844048 0.22826031358 -0.58122729483 1.8780995484 0.33164650822
          -0.6660120373 1.9088247683 0.43548071204 -0.74966527328 1.939857584 0.53834181032
          -0.83466378582 1.9698799935 0.64259914499 -0.91762555508 2.0003194679 0.74597055606
          -0.1853698786 1.5094457019 -0.14680599922 -0.27036770816 1.540605518 -0.043721609627
          -0.35606354648 1.5731114753 0.059573253696 -0.44095945861 1.6046991738 0.16360023
          -0.52462200683 1.6354953499 0.26747298972 -0.61124806785 1.6675921116 0.36905386185
          -0.69460080624 1.6981491341 0.47292421347 -0.77944416815 1.7281535089 0.57548234339
          -0.86301002502 1.7567633124 0.6798176145 -0.9467907149 1.786870567 0.78302400748
          -0.21451885174 1.298921204 -0.10710775045 -0.30014750105 1.3313690517 -0.0037155339623
          -0.38387498894 1.3613574064 0.097523060544 -0.46987954944 1.3927323178 0.20172617557
          -0.55391451598 1.4254220989 0.30331020081 -0.63926650956 1.4557410403 0.40415475564
          -0.7241239221 1.4850979854 0.50738734429 -0.80778194092 1.5158342275 0.61279363364
          -0.89438319722 1.5458254673 0.7132328751 -0.97925506042 1.5748587903 0.81635698841
          -0.24195713602 1.0868387715 -0.072445419666 -0.3266234906 1.1178687421 0.032469239077
          -0.41093339153 1.1496894379 0.13394104274 -0.4987040022 1.1804120228 0.23434975034
          -0.57830253946 1.2124160219 0.34473404744 -0.66514389343 1.241075592 0.43722638217
          -0.75127817888 1.2757598449 0.55062666045 -0.83482626949 1.3035063392 0.64916773871
          -0.91936239243 1.3321682963 0.7525604891 -1.0073749203 1.3636248631 0.85382630876
          -0.27065112531 0.87365331278 -0.031534153179 -0.35426581647 0.90588757608 0.066422663092
          -0.43994214757 0.9372824907 0.1748389348 -0.52549290302 0.96589422519 0.27491576725
          -0.60749949358 0.99885056632 0.38337486728 -0.69554817303 1.030555795 0.47218242378
          -0.7805910607 1.0626875187 0.58270279555 -0.8667119415 1.0913724447 0.68312093815
          -0.94761116558 1.1205565299 0.79040077122 -1.0348848669 1.1459476883 0.89215851724
          -0.2983525635 0.66790374225 -0.0026571422434 -0.38426598654 0.69390133445 0.10113935196
          -0.46788518696 0.727292953 0.20881809082 -0.55844654383 0.75779359815 0.312771055
          -0.63575561115 0.80755225992 0.42205456336 -0.72492552968 0.82382394651 0.50919052096
          -0.81075146327 0.85236209538 0.61542964919 -0.89442085924 0.87900659042 0.71739044773
          -0.97476139617 0.90731759654 0.82902798351 -1.0759346017 0.93495903495 0.91949974714
          0.060456251771 2.5304346786 -0.46399034435 -0.026480977278 2.5655207084 -0.35889178848
          -0.10718197918 2.5967683707 -0.25534134588 -0.1925140126 2.626247565 -0.15200692094
          -0.27761770062 2.6572969026 -0.047544759361 -0.36229520305 2.6896076415 0.054590723628
          -0.44711466095 2.7208570119 0.15939620228 -0.53288115183 2.7511546986 0.26153905174
          -0.61882559553 2.7811549729 0.36914097608 -0.6987726975 2.8132070429 0.46947876972
          0.032107411294 2.3205280678 -0.42517105701 -0.052875302697 2.3532029113 -0.32061090738
          -0.13635674518 2.3859243089 -0.21720342639 -0.2222075729 2.4159873829 -0.11509895687
          -0.30694014604 2.446306971 -0.010999395674 -0.39032249211 2.4772653649 0.092169048359
          -0.47602069778 2.5087147204 0.19703718529 -0.55937273446 2.5392670442 0.29837351463
          -0.64481927264 2.5700528993 0.40293223568 -0.72804806818 2.6003946502 0.50836420231
          0.0028042266815 2.1102246004 -0.38649379353 -0.08097860295 2.1424696782 -0.28370755076
          -0.16639018662 2.172141305 -0.1790615166 -0.25080581961 2.2045354663 -0.077367280531
          -0.33521661864 2.2362504079 0.02597101781 -0.41995004121 2.2669482969 0.13005948245
          -0.50447576547 2.2980083921 0.23356702181 -0.58859815946 2.3266095693 0.33634570905
          -0.67313937529 2.3588873003 0.43973029027 -0.75862501097 2.3883841879 0.54435102114
          -0.025721414475 1.8974146063 -0.34972369792 -0.11034247885 1.9305356979 -0.24538602591
          -0.19384101912 1.9613425565 -0.14270063274 -0.27870396153 1.9933482685 -0.039621648274
          -0.36306178587 2.0243462087 0.06336021283 -0.44807084614 2.0550553601 0.16686708454
          -0.53272068155 2.0857486723 0.27140270499 -0.61718795353 2.1162374585 0.3738009237
          -0.70231770979 2.1466959219 0.47743931841 -0.78715599751 2.1760548283 0.58170076793
          -0.052970496374 1.6845030561 -0.31250763898 -0.13902518789 1.7182673209 -0.20834452031
          -0.22285711863 1.7494085173 -0.10496923047 -0.30745682361 1.780631973 -0.0017025571168
          -0.3926707977 1.8119527799 0.10139433782 -0.4767934602 1.8434163022 0.20448206939
          -0.56164351941 1.8741764197 0.30829392031 -0.6461699325 1.9047825447 0.4114638395
          -0.73123472749 1.9342334391 0.51485261746 -0.81407301663 1.9632992812 0.62028386493
          -0.08190820378 1.474978036 -0.27403363064 -0.16686397517 1.5058503692 -0.17065277013
          -0.25103823158 1.5380598074 -0.067384328383 -0.33687001489 1.5693687047 0.035475601019
          -0.42123007517 1.5999136206 0.13905450486 -0.50566459574 1.6315447612 0.24161613822
          -0.59083297834 1.6622998681 0.34466022442 -0.6746540797 1.6918413036 0.44781601907
          -0.75992981389 1.7220439501 0.5506004524 -0.84543013043 1.7509082261 0.65517846795
          -0.11089737938 1.2654542793 -0.23598669567 -0.1950493474 1.2956514452 -0.13185805929
          -0.27883343787 1.3272920984 -0.03008323706 -0.3625676761 1.3584373049 0.074299417818
          -0.44847876614 1.388227311 0.17654743039 -0.5343861225 1.4200362844 0.27699860969
          -0.61800987714 1.4503555854 0.37990479419 -0.70322336722 1.4804664357 0.4836846898
          -0.78901119569 1.5093990836 0.58763905228 -0.87400657304 1.5415889022 0.69196999317
          -0.13772727288 1.0512310023 -0.19947685783 -0.22370239868 1.0832258517 -0.094943651201
          -0.30835319124 1.114372395 0.0078043417751 -0.3935460525 1.1467458757 0.11203949371
          -0.47678251257 1.1765718806 0.21482138078 -0.56319171369 1.2076586817 0.31359556932
          -0.64825474434 1.2379172697 0.4168788467 -0.73303474683 1.2682649879 0.5210922022
          -0.81724742724 1.2983504631 0.62461967385 -0.9009061783 1.3269326523 0.72965259128
          -0.1645717782 0.83783886996 -0.16225190642 -0.2520787159 0.87234244421 -0.058887622357
          -0.33627552309 0.9029352895 0.046236445871 -0.42054268592 0.93381095846 0.15032343036
          -0.50789370636 0.9653346106 0.25184608357 -0.59286808266 0.99720036992 0.35074576199
          -0.67583612796 1.0255859833 0.45259948231 -0.76139015515 1.0556850688 0.55682062659
          -0.84572002486 1.0871786197 0.66164709564 -0.92644924339 1.1163734851 0.76635303272
          -0.1966185963 0.62736593483 -0.12481281976 -0.27718644191 0.65729664926 -0.016507886195
          -0.36514657761 0.68959732249 0.085222511458 -0.44944497771 0.71933833095 0.18469494974
          -0.53530279465 0.74739964347 0.28776520177 -0.62096926194 0.7832988663 0.38821227447
          -0.70558792515 0.81397860009 0.49240382981 -0.7909077816 0.8423121746 0.59114916644
          -0.87460297482 0.87180517735 0.69641595282 -0.962984782 0.90023563357 0.79625370502
          0.16419975543 2.4996397991 -0.58895079482 0.077879791208 2.5283917027 -0.4854690346
          -0.0052335336219 2.5602726281 -0.38251570154 -0.089819296542 2.5943595134 -0.27880985632
          -0.17574540815 2.6229736738 -0.17508219243 -0.25986511568 2.6538806232 -0.071911116113
          -0.34319380436 2.6855513595 0.030682428141 -0.4286429261 2.7156328523 0.13645834552
          -0.51270500824 2.7452237802 0.24257907997 -0.59716660557 2.778086983 0.34395878313
          0.13312979241 2.2873674887 -0.5501380717 0.050547777929 2.3175073419 -0.44844815097
          -0.033416568946 2.3491686539 -0.34521708939 -0.11816793374 2.3805339303 -0.2412460392
          -0.20300914813 2.4111259437 -0.13840736763 -0.28769808188 2.4425056484 -0.034823356633
          -0.37171362206 2.4732058143 0.069025012016 -0.45685569732 2.5045808803 0.17311375171
          -0.54146936874 2.5336210676 0.27607949135 -0.6283334307 2.5664467261 0.37742848351
          0.10648631505 2.0740271793 -0.51355401342 0.02161413781 2.1064635659 -0.41142033088
          -0.06172423468 2.1372883307 -0.30741090709 -0.14718333506 2.1685013746 -0.20433583024
          -0.2310443146 2.2005119335 -0.10110547104 -0.31607707352 2.2311721042 0.0023100340393
          -0.40116308464 2.2617934951 0.106340843 -0.48506349945 2.2922335649 0.20948335596
          -0.57017233065 2.3236717744 0.31414078363 -0.65432917394 2.35371755 0.41756499153
          0.079256180781 1.8625619704 -0.47577616474 -0.0055799134458 1.8940074022 -0.37297749525
          -0.09028515013 1.9256403891 -0.26977173883 -0.17512753244 1.9567641864 -0.16628118005
          -0.25955532124 1.9886023587 -0.063558858869 -0.34401216952 2.0195387896 0.039837401482
          -0.42945827307 2.0493517808 0.14311842599 -0.51357451288 2.0803594324 0.24670201529
          -0.597837325 2.1100149203 0.3502587916 -0.68281163842 2.1405122285 0.45379155186
          0.050946507647 1.6514274735 -0.43838757879 -0.034931414465 1.6827246723 -0.33470408528
          -0.11877311096 1.7141146643 -0.23158235338 -0.20347126342 1.7450262995 -0.12847811915
          -0.28815362003 1.7767321901 -0.025961410292 -0.37276387723 1.8080609428 0.077212884407
          -0.45755783198 1.8378603797 0.18042926139 -0.54242645024 1.8678220284 0.28336763772
          -0.62750282722 1.8988117561 0.38773707628 -0.71071066564 1.9288282675 0.4906976852
          0.022523445704 1.4398499998 -0.40103323677 -0.062682551057 1.4710567702 -0.29712057033
          -0.14681607775 1.5017574461 -0.19453677517 -0.2320946435 1.5335795069 -0.091419436432
          -0.31610421733 1.5645995174 0.011978833553 -0.40113251988 1.5955546869 0.11307412667
          -0.48627295992 1.6263889517 0.21772672302 -0.57014873447 1.6557453187 0.32094781186
          -0.65560052062 1.686067813 0.42407897605 -0.73950007337 1.7177054399 0.52774068641
          -0.0058276976712 1.2285752818 -0.36308996987 -0.09081069147 1.2592210202 -0.26089315794
          -0.1750398439 1.2906518177 -0.15723036259 -0.26105285379 1.3220245391 -0.054144963273
          -0.34387807555 1.354016582 0.048424114469 -0.42916593115 1.3850851903 0.1499706907
          -0.51499071321 1.4143423763 0.25427694224 -0.59886545652 1.4445473375 0.35765940701
          -0.68347752214 1.4741932575 0.46175505221 -0.76857775729 1.5049857958 0.56317624994
          -0.035247328584 1.0173070663 -0.32509524824 -0.1187774771 1.0476157524 -0.22224017702
          -0.20242558012 1.0801332793 -0.11916785778 -0.2875736763 1.1101381582 -0.014524050269
          -0.37321814119 1.140917009 0.089057728961 -0.45985918131 1.1720353383 0.18577442098
          -0.54281332537 1.2016245913 0.28922958462 -0.62636407022 1.2328223059 0.39256133722
          -0.712556276 1.2619403202 0.49715634586 -0.79739957744 1.2928883647 0.60047415941
          -0.062577492374 0.80585420486 -0.28657249239 -0.14642249115 0.8355485866 -0.18374003667
          -0.23184962424 0.86748974754 -0.081661130225 -0.31660020391 0.89770731553 0.021933775877
          -0.40174681546 0.92937669085 0.12526815974 -0.48730894431 0.95986210441 0.2230388853
          -0.57139941978 0.98984449662 0.32670026998 -0.65697873736 1.0207540184 0.42933922566
          -0.74171700303 1.0493020187 0.53274114252 -0.82602060742 1.0804606845 0.63660816055
          -0.091315824365 0.59330461602 -0.24865887867 -0.17573866445 0.6244447417 -0.14662671812
          -0.26027706789 0.65580312631 -0.041176090096 -0.34472567035 0.68829892748 0.061595236314
          -0.42974190502 0.72010479785 0.16392925798 -0.51701042513 0.74993456117 0.25712798431
          -0.60216499043 0.77808358253 0.35925942377 -0.68739106877 0.80745321106 0.46418208096
          -0.76966567921 0.83783983001 0.5699382373 -0.85719527393 0.8651515544 0.67188741261
          0.26683288766 2.4609929039 -0.71564071505 0.18591898822 2.4959774821 -0.61336650417
          0.099319387492 2.5243544379 -0.50937005283 0.014303542142 2.5563592995 -0.40516179575
          -0.069071958345 2.5866777962 -0.30217500661 -0.1546654799 2.6187617165 -0.19975349663
          -0.23905610239 2.6485686812 -0.095988320126 -0.32372766134 2.6791192891 0.0079183495265
          -0.4069371347 2.711939959 0.10987346868 -0.49134701565 2.7409860321 0.21525193397
          0.23820274771 2.247033338 -0.67997390531 0.15493999019 2.2832601646 -0.57541780341
          0.070507972448 2.3134119645 -0.47231636316 -0.013820506315 2.3456020034 -0.36858471609
          -0.098263566327 2.3766372779 -0.26573630814 -0.18327245581 2.4070829356 -0.1618886769
          -0.2666720084 2.4380710878 -0.057788558352 -0.35258961576 2.469071973 0.045542743704
          -0.43721191607 2.4994167265 0.14846546168 -0.52171196938 2.5285489497 0.25485648892
          0.21236345418 2.0396915684 -0.63940731703 0.1267343492 2.0710484445 -0.53773675185
          0.041593823415 2.1025579319 -0.43425702701 -0.042361048076 2.1336441911 -0.3316271724
          -0.12666979278 2.1649917453 -0.22831889426 -0.21139432483 2.1961359639 -0.12474181564
          -0.2960608236 2.2268928685 -0.021517182292 -0.38192365979 2.2566894779 0.082407855073
          -0.46574259406 2.2877734773 0.18618807457 -0.55034345782 2.3173843404 0.28792381867
          0.18203627778 1.8286433339 -0.60269611759 0.09896175868 1.8597417936 -0.49990876979
          0.013771044209 1.8903145518 -0.39722540142 -0.070741567149 1.92169198 -0.2938727856
          -0.15539481619 1.9531202663 -0.19084194823 -0.23983065525 1.984197738 -0.087556882931
          -0.3247233506 2.0147112319 0.016009853399 -0.4093784283 2.0452738831 0.11989090126
          -0.49377657671 2.0757270237 0.22249616029 -0.58048429053 2.1056681404 0.32683051661
          0.15332870282 1.6160376211 -0.56527125152 0.070378835334 1.6479305649 -0.46263734612
          -0.014719423752 1.6787202201 -0.35958935123 -0.099289628348 1.7094903616 -0.25519868587
          -0.18385408351 1.7414916251 -0.15348423318 -0.26824768379 1.7725616005 -0.050222486154
          -0.35324979293 1.8028171272 0.053232634609 -0.43801807385 1.8332711433 0.15680751366
          -0.52258155228 1.8633837447 0.26056001365 -0.60867184196 1.8939200314 0.36422633659
          0.12663423531 1.4047313958 -0.52845555269 0.041307229444 1.4363092446 -0.42516246613
          -0.042994974377 1.4668762894 -0.32190204569 -0.12766748829 1.4980891341 -0.21865074894
          -0.21274263082 1.5299614664 -0.1146398066 -0.29727028665 1.5602948448 -0.013588931505
          -0.38206807327 1.5910375192 0.090455660047 -0.46669795783 1.6210313795 0.19349892131
          -0.55171777552 1.6516811173 0.29681510834 -0.63608304828 1.6816932102 0.40008051774
          0.098690803701 1.1927902069 -0.49023119349 0.013561118655 1.2234801645 -0.38612675074
          -0.071433088248 1.2549439952 -0.28456119446 -0.15545426629 1.2862869349 -0.18049320063
          -0.23995010739 1.3189706575 -0.078273620342 -0.32608369287 1.3490451817 0.02217288927
          -0.4103778249 1.3787105514 0.12648484786 -0.49496936744 1.4089367742 0.23038591309
          -0.58043579896 1.4381761183 0.33290847043 -0.66426592381 1.4686557061 0.43713288834
          0.070437140164 0.98210265548 -0.45354925779 -0.016361945651 1.0115518581 -0.34890241145