<?xml version="1.0"?>
<VTKFile type="UnstructuredGrid" version="0.1" byte_order="LittleEndian" compressor="vtkZLibDataCompressor">
  <UnstructuredGrid>
    <FieldData>
      <DataArray type="Float64" Name="TIME" NumberOfTuples="1" format="ascii" RangeMin="0.93554537186" RangeMax="0.93554537186">
        0.93554537186
      </DataArray>
    </FieldData>
    <Piece NumberOfPoints="1000" NumberOfCells="0">
      <PointData>
        <DataArray type="Float64" Name="Damage" format="ascii" RangeMin="0" RangeMax="0.5081300813">
          0 0 0 0 0 0
          0 0 0 0 0 0.027932960894
          0 0 0 0 0 0
          0.027932960894 0 0 0.055084745763 0.071428571429 0.040345821326
          0.014164305949 0.012987012987 0.040345821326 0.071428571429 0.055084745763 0
          0 0.067669172932 0.11239193084 0.1074168798 0.037688442211 0.034562211982
          0.1074168798 0.11239193084 0.067669172932 0 0 0.074349442379
          0.16147308782 0.16834170854 0.12376237624 0.11286681716 0.16834170854 0.16147308782
          0.074349442379 0 0 0.084459459459 0.2 0.25806451613
          0.33860045147 0.39211618257 0.25806451613 0.2 0.084459459459 0
          0 0.093984962406 0.25360230548 0.36061381074 0.41959798995 0.46774193548
          0.36061381074 0.25360230548 0.093984962406 0 0 0.10593220339
          0.31493506494 0.40057636888 0.4447592068 0.49090909091 0.40057636888 0.31493506494
          0.10593220339 0 0 0.17318435754 0.3686440678 0.43984962406
          0.44981412639 0.5 0.43984962406 0.3686440678 0.17318435754 0
          0.016129032258 0.18791946309 0.36734693878 0.44343891403 0.46428571429 0.5081300813
          0.44343891403 0.36734693878 0.18791946309 0.008064516129 0 0
          0 0 0 0 0 0
          0 0 0 0.027906976744 0 0
          0 0 0 0 0.027906976744 0
          0 0.056338028169 0.072776280323 0.040669856459 0.014117647059 0.012931034483
          0.040669856459 0.072776280323 0.056338028169 0 0 0.06875
          0.11483253589 0.10828025478 0.0375782881 0.034416826004 0.10828025478 0.11483253589
          0.06875 0 0 0.074303405573 0.16235294118 0.16910229645
          0.12371134021 0.11257035647 0.16910229645 0.16235294118 0.074303405573 0
          0 0.084269662921 0.20043103448 0.25812619503 0.33771106942 0.39242685026
          0.25812619503 0.20043103448 0.084269662921 0 0 0.09375
          0.25358851675 0.36093418259 0.41962421712 0.46845124283 0.36093418259 0.25358851675
          0.09375 0 0 0.10563380282 0.3153638814 0.4019138756
          0.44470588235 0.49137931034 0.4019138756 0.3153638814 0.10563380282 0
          0 0.16744186047 0.36971830986 0.440625 0.44582043344 0.49719101124
          0.440625 0.36971830986 0.16744186047 0 0.013422818792 0.17877094972
          0.3686440678 0.44360902256 0.44981412639 0.5 0.43984962406 0.3686440678
          0.17877094972 0.006711409396 0 0 0 0
          0 0 0 0 0 0
          0 0.024647887324 0 0 0 0
          0 0 0.024647887324 0 0 0.051212938005
          0.06875 0.038817005545 0.012635379061 0.011666666667 0.038817005545 0.06875
          0.051212938005 0 0 0.064593301435 0.10905730129 0.10491803279
          0.036858974359 0.034023668639 0.10491803279 0.10905730129 0.064593301435 0
          0 0.070588235294 0.15523465704 0.16506410256 0.12283464567 0.11271676301
          0.16506410256 0.15523465704 0.070588235294 0 0 0.081896551724
          0.19333333333 0.25443786982 0.33959537572 0.38985313752 0.25443786982 0.19333333333
          0.081896551724 0 0 0.093301435407 0.24768946396 0.35573770492
          0.41987179487 0.46449704142 0.35573770492 0.24768946396 0.093301435407 0
          0 0.10781671159 0.30833333333 0.39556377079 0.4440433213 0.48666666667
          0.39556377079 0.30833333333 0.10781671159 0 0 0.16197183099
          0.35579514825 0.43062200957 0.44470588235 0.49137931034 0.43062200957 0.35579514825
          0.16197183099 0 0 0.16101694915 0.3538961039 0.42939481268
          0.4447592068 0.49090909091 0.42939481268 0.3538961039 0.16101694915 0
          0 0 0 0 0 0
          0 0 0 0 0 0.025
          0 0 0 0 0 0
          0.025 0 0 0.05023923445 0.068391866913 0.039344262295
          0.012820512821 0.011834319527 0.039344262295 0.068391866913 0.05023923445 0
          0 0.063694267516 0.10819672131 0.10465116279 0.036984352774 0.034120734908
          0.10465116279 0.10819672131 0.063694267516 0 0 0.070981210856
          0.15544871795 0.16500711238 0.12290502793 0.11282051282 0.16500711238 0.15544871795
          0.070981210856 0 0 0.082217973231 0.19378698225 0.25459317585
          0.33974358974 0.38981042654 0.25459317585 0.19378698225 0.082217973231 0
          0 0.093418259023 0.24918032787 0.35610465116 0.41963015647 0.46456692913
          0.35610465116 0.24918032787 0.093418259023 0 0 0.10765550239
          0.30868761553 0.39508196721 0.44391025641 0.48668639053 0.39508196721 0.30868761553
          0.10765550239 0 0 0.1625 0.35645933014 0.43099787686
          0.44467640919 0.4913957935 0.43099787686 0.35645933014 0.1625 0
          0 0.16165413534 0.35446685879 0.42966751918 0.44472361809 0.49078341014
          0.42966751918 0.35446685879 0.16165413534 0 0 0
          0 0 0 0 0 0
          0 0 0 0.02786377709 0 0
          0 0 0 0 0.02786377709 0
          0 0.054117647059 0.070397111913 0.040064102564 0.014173228346 0.013005780347
          0.040064102564 0.070397111913 0.054117647059 0 0 0.066805845511
          0.11057692308 0.106685633 0.037709497207 0.034615384615 0.106685633 0.11057692308
          0.066805845511 0 0 0.074226804124 0.16062992126 0.16759776536
          0.12362637363 0.11292346299 0.16759776536 0.16062992126 0.074226804124 0
          0 0.084427767355 0.19942196532 0.25769230769 0.33877038896 0.39145496536
          0.25769230769 0.19942196532 0.084427767355 0 0 0.093945720251
          0.25320512821 0.35988620199 0.41899441341 0.46666666667 0.35988620199 0.25320512821
          0.093945720251 0 0 0.10588235294 0.31407942238 0.39903846154
          0.44409448819 0.48988439306 0.39903846154 0.31407942238 0.10588235294 0
          0 0.16718266254 0.36705882353 0.43841336117 0.44536082474 0.49530956848
          0.43841336117 0.36705882353 0.16718266254 0 0 0.16728624535
          0.36543909348 0.43718592965 0.44554455446 0.49435665914 0.43718592965 0.36543909348
          0.16728624535 0 0 0 0 0
          0 0 0 0 0 0
          0 0.025280898876 0 0 0 0
          0 0 0.025280898876 0 0 0.049568965517
          0.066666666667 0.038461538462 0.013005780347 0.012016021362 0.038461538462 0.066666666667
          0.049568965517 0 0 0.06309751434 0.1050295858 0.10367454068
          0.037179487179 0.034360189573 0.10367454068 0.1050295858 0.06309751434 0
          0 0.071294559099 0.15462427746 0.1641025641 0.12296110414 0.11316397229
          0.1641025641 0.15462427746 0.071294559099 0 0 0.082616179002
          0.19359145527 0.25473933649 0.34064665127 0.38930481283 0.25473933649 0.19359145527
          0.082616179002 0 0 0.093690248566 0.24852071006 0.35564304462
          0.41923076923 0.46327014218 0.35564304462 0.24852071006 0.093690248566 0
          0 0.10775862069 0.30833333333 0.39349112426 0.4436416185 0.48598130841
          0.39349112426 0.30833333333 0.10775862069 0 0 0.16292134831
          0.35560344828 0.43021032505 0.44465290807 0.49053356282 0.43021032505 0.35560344828
          0.16292134831 0 0 0.16216216216 0.35324675325 0.42857142857
          0.44469525959 0.48962655602 0.42857142857 0.35324675325 0.16216216216 0
          0 0 0 0 0 0
          0 0 0 0 0 0.025
          0 0 0 0 0 0
          0.025 0 0 0.05023923445 0.068391866913 0.039344262295
          0.012820512821 0.011834319527 0.039344262295 0.068391866913 0.05023923445 0
          0 0.063694267516 0.10819672131 0.10465116279 0.036984352774 0.034120734908
          0.10465116279 0.10819672131 0.063694267516 0 0 0.070981210856
          0.15544871795 0.16500711238 0.12290502793 0.11282051282 0.16500711238 0.15544871795
          0.070981210856 0 0 0.082217973231 0.19378698225 0.25459317585
          0.33974358974 0.38981042654 0.25459317585 0.19378698225 0.082217973231 0
          0 0.093418259023 0.24918032787 0.35610465116 0.41963015647 0.46456692913
          0.35610465116 0.24918032787 0.093418259023 0 0 0.10765550239
          0.30868761553 0.39508196721 0.44391025641 0.48668639053 0.39508196721 0.30868761553
          0.10765550239 0 0 0.1625 0.35645933014 0.43099787686
          0.44467640919 0.4913957935 0.43099787686 0.35645933014 0.1625 0
          0 0.16165413534 0.35446685879 0.42966751918 0.44472361809 0.49078341014
          0.42966751918 0.35446685879 0.16165413534 0 0 0
          0 0 0 0 0 0
          0 0 0 0.024647887324 0 0
          0 0 0 0 0.024647887324 0
          0 0.051212938005 0.06875 0.038817005545 0.012635379061 0.011666666667
          0.038817005545 0.06875 0.051212938005 0 0 0.064593301435
          0.10905730129 0.10491803279 0.036858974359 0.034023668639 0.10491803279 0.10905730129
          0.064593301435 0 0 0.070588235294 0.15523465704 0.16506410256
          0.12283464567 0.11271676301 0.16506410256 0.15523465704 0.070588235294 0
          0 0.081896551724 0.19333333333 0.25443786982 0.33959537572 0.38985313752
          0.25443786982 0.19333333333 0.081896551724 0 0 0.093301435407
          0.24768946396 0.35573770492 0.41987179487 0.46449704142 0.35573770492 0.24768946396
          0.093301435407 0 0 0.10781671159 0.30833333333 0.39556377079
          0.4440433213 0.48666666667 0.39556377079 0.30833333333 0.10781671159 0
          0 0.16197183099 0.35579514825 0.43062200957 0.44470588235 0.49137931034
          0.43062200957 0.35579514825 0.16197183099 0 0 0.16101694915
          0.3538961039 0.42939481268 0.4447592068 0.49090909091 0.42939481268 0.3538961039
          0.16101694915 0 0 0 0 0
          0 0 0 0 0 0
          0 0.027906976744 0 0 0 0
          0 0 0.027906976744 0 0 0.056338028169
          0.072776280323 0.040669856459 0.014117647059 0.012931034483 0.040669856459 0.072776280323
          0.056338028169 0 0 0.06875 0.11483253589 0.10828025478
          0.0375782881 0.034416826004 0.10828025478 0.11483253589 0.06875 0
          0 0.074303405573 0.16235294118 0.16910229645 0.12371134021 0.11257035647
          0.16910229645 0.16235294118 0.074303405573 0 0 0.084269662921
          0.20043103448 0.25812619503 0.33771106942 0.39242685026 0.25812619503 0.20043103448
          0.084269662921 0 0 0.09375 0.25358851675 0.36093418259
          0.41962421712 0.46845124283 0.36093418259 0.25358851675 0.09375 0
          0 0.10563380282 0.3153638814 0.4019138756 0.44470588235 0.49137931034
          0.4019138756 0.3153638814 0.10563380282 0 0 0.16744186047
          0.36971830986 0.440625 0.44582043344 0.49719101124 0.440625 0.36971830986
          0.16744186047 0 0.006711409396 0.16759776536 0.3686440678 0.43984962406
          0.44609665428 0.49662162162 0.43984962406 0.3686440678 0.17318435754 0.006711409396
          0 0 0 0 0 0
          0 0 0 0 0 0.027932960894
          0 0 0 0 0 0
          0.027932960894 0 0 0.055084745763 0.071428571429 0.040345821326
          0.014164305949 0.012987012987 0.040345821326 0.071428571429 0.055084745763 0
          0 0.067669172932 0.11239193084 0.1074168798 0.037688442211 0.034562211982
          0.1074168798 0.11239193084 0.067669172932 0 0 0.074349442379
          0.16147308782 0.16834170854 0.12376237624 0.11286681716 0.16834170854 0.16147308782
          0.074349442379 0 0 0.084459459459 0.2 0.25806451613
          0.33860045147 0.39211618257 0.25806451613 0.2 0.084459459459 0
          0 0.093984962406 0.25360230548 0.36061381074 0.41959798995 0.46774193548
          0.36061381074 0.25360230548 0.093984962406 0 0 0.10593220339
          0.31493506494 0.40057636888 0.4447592068 0.49090909091 0.40057636888 0.31493506494
          0.10593220339 0 0 0.16759776536 0.3686440678 0.43984962406
          0.44981412639 0.5 0.43984962406 0.3686440678 0.16759776536 0.006711409396
          0.016129032258 0.1744966443 0.36734693878 0.44343891403 0.45535714286 0.50406504065
          0.44343891403 0.36734693878 0.18120805369 0.024193548387
        </DataArray>
        <DataArray type="Float64" Name="Displacement" NumberOfComponents="3" format="ascii" RangeMin="0.20993798013" RangeMax="1.636782543">
          0.17637323015 0.96558854869 -0.55001459719 0.12801903549 1.0346459684 -0.48523871243
          0.074320416354 1.1134573161 -0.41803005666 0.019322797674 1.1837658906 -0.35712264094
          -0.040591653106 1.2581923747 -0.29228553102 -0.077052459275 1.3205606858 -0.23609262572
          -0.13889977131 1.3940067923 -0.17151985668 -0.18636534183 1.4611324786 -0.11304428066
          -0.23555402 1.5321700125 -0.045073708822 -0.29477566189 1.6098757318 0.021552973318
          0.11027438722 0.84830474517 -0.45724426493 0.061256685129 0.91026145404 -0.3980691332
          0.0065986008759 0.98151257351 -0.33569586287 -0.048805420443 1.0541194847 -0.27125345536
          -0.099705971667 1.1233943074 -0.20879720769 -0.15198460139 1.1943988344 -0.14707498232
          -0.20208572517 1.2630723664 -0.085690180523 -0.25216364582 1.3326946287 -0.024328380423
          -0.3024493067 1.4009347793 0.036018610534 -0.36397464571 1.4751909647 0.095629897302
          0.042399062656 0.70937119671 -0.37546936554 -0.011163514068 0.78058542187 -0.31167675222
          -0.063350844784 0.85206675133 -0.24902383291 -0.11507882885 0.92302080368 -0.18566277031
          -0.16725851697 0.99349205213 -0.12413293175 -0.21725151904 1.0627389529 -0.061742748027
          -0.27022340167 1.1330326098 0.00011334091194 -0.32192415238 1.2044124832 0.062297529676
          -0.37211242931 1.2738872208 0.1250522647 -0.42263795281 1.3440707458 0.18631915467
          -0.02754003513 0.58424198257 -0.28547083559 -0.079738008962 0.65325159019 -0.2248013135
          -0.13057878077 0.72188835893 -0.1637284217 -0.18167711702 0.79188859409 -0.10134589726
          -0.23365684627 0.86363423245 -0.038341596606 -0.2856680429 0.93327869106 0.024336217361
          -0.33711690818 1.0030904211 0.087080548729 -0.38810120214 1.0740018823 0.14814809421
          -0.44329104593 1.1440913263 0.2111187397 -0.49346017474 1.2139074282 0.27098491533
          -0.096632648202 0.45622220278 -0.19999607715 -0.14772530221 0.5225797547 -0.13778778717
          -0.19869969498 0.59330345216 -0.07725182518 -0.2504241517 0.66285107302 -0.015267426646
          -0.30149919102 0.73442486065 0.046894417118 -0.35326581487 0.80500584594 0.1096555838
          -0.4047154398 0.87422504573 0.1721499137 -0.45744852066 0.94428393548 0.2337485036
          -0.50924933444 1.0137445699 0.29673433009 -0.56128801561 1.0847123202 0.35782964338
          -0.16331658815 0.32260964535 -0.11438150741 -0.21477509153 0.39455943562 -0.052088779649
          -0.26668293058 0.46342288617 0.0087124803893 -0.31859005243 0.53362676918 0.069806797369
          -0.37075260854 0.60494572754 0.13155324976 -0.42176259329 0.67440250412 0.19578809384
          -0.47357716249 0.7438491442 0.25880361586 -0.52484615117 0.81467270249 0.32023555193
          -0.57908084351 0.88488972461 0.38098411513 -0.62483154947 0.95467240769 0.44484456284
          -0.23223007235 0.19422740555 -0.026179533944 -0.28264873247 0.26730314298 0.03471773595
          -0.33476468095 0.33392586838 0.094791230911 -0.3859913859 0.40352925357 0.15523418105
          -0.43481429553 0.47575095363 0.2210301366 -0.48997691525 0.53882610403 0.28178862006
          -0.54108696438 0.6127313838 0.34368295581 -0.59279726762 0.68513783936 0.4055840299
          -0.64720625932 0.7559422045 0.46652904729 -0.69718515596 0.82582538516 0.52897451471
          -0.30036641718 0.061777279899 0.059148413417 -0.35072185749 0.13444684329 0.11949658452
          -0.40091894799 0.20645863825 0.18257951671 -0.45349842477 0.27549245352 0.24313716176
          -0.50277764432 0.34887643904 0.30462485228 -0.55867925794 0.41196935819 0.36704799552
          -0.60884316193 0.48431190894 0.43102906132 -0.65982088616 0.55631226381 0.492268838
          -0.71210122373 0.62645791804 0.55363224654 -0.7631738332 0.69526594514 0.61929058439
          -0.36780387696 -0.06436337082 0.1443143844 -0.41949405247 0.0030992785289 0.20647078294
          -0.47009249699 0.076113362067 0.26727175005 -0.51823205156 0.1476072507 0.33179218796
          -0.57047607489 0.21979563858 0.39090404507 -0.62717397647 0.28361175782 0.45752110421
          -0.6773024992 0.35175085469 0.51607703755 -0.72755860409 0.42767809719 0.57957884121
          -0.7777621011 0.49736933378 0.64218732129 -0.83360856262 0.56783753266 0.69971782766
          -0.43600513499 -0.18743458093 0.23797879999 -0.48351544966 -0.11058342155 0.28375206915
          -0.54005734332 -0.054189728664 0.35414098013 -0.58928289226 0.01936520438 0.41208281136
          -0.62291886995 0.10500042147 0.47073771916 -0.69551151797 0.16081532475 0.54062339302
          -0.74462212496 0.23081916771 0.60720420573 -0.79085238114 0.29743763684 0.66993658043
          -0.84785971823 0.37421973501 0.7158261506 -0.88337335919 0.44104197624 0.79310718132
          0.23969197794 0.8840870014 -0.62231522357 0.18899747324 0.95573631314 -0.56053719547
          0.13686505216 1.0275988645 -0.49844436064 0.086275532331 1.0982353003 -0.43603671872
          0.033871203948 1.1685542132 -0.37396619958 -0.015161512369 1.2364243078 -0.31284205198
          -0.070304091802 1.3085402296 -0.24961748152 -0.12263303555 1.3798165467 -0.18708905602
          -0.17047901094 1.4487068232 -0.12410576129 -0.22521832789 1.522209368 -0.059356486182
          0.17530298128 0.75958046744 -0.53885294873 0.12245927773 0.82662890836 -0.47449134109
          0.068845160221 0.89888273372 -0.41181078974 0.018513760602 0.96846556853 -0.3494326053
          -0.033435921787 1.0378013979 -0.28861353489 -0.084942445725 1.1093738467 -0.22607439731
          -0.13720464791 1.1774228422 -0.16402346682 -0.18953682033 1.2502540143 -0.10208554131
          -0.23850049146 1.3188281463 -0.039351822057 -0.29372128985 1.3899096227 0.018372636386
          0.10471040758 0.62741286746 -0.44998643567 0.054433334082 0.69918850856 -0.38895538101
          0.002384642356 0.76768674858 -0.326197769 -0.049847755204 0.83869287172 -0.26453369234
          -0.1010815455 0.90852699886 -0.20242055653 -0.15297432801 0.97921051799 -0.13987072845
          -0.20403999524 1.0494987715 -0.07795515318 -0.2560758103 1.1185303537 -0.01545847271
          -0.3086704894 1.1892499989 0.044922348323 -0.3604929014 1.2601536073 0.10834650006
          0.036151828438 0.4978625944 -0.36434821986 -0.015358887811 0.56902705295 -0.30261875186
          -0.065930876778 0.63837041547 -0.24125302204 -0.11727384067 0.70881284651 -0.17893765358
          -0.16891858726 0.77953165857 -0.11644593956 -0.22081760715 0.84966517776 -0.053912515064
          -0.27216313812 0.9199736074 0.0087308162874 -0.32414741327 0.99050990914 0.070685835131
          -0.37760155939 1.0605512737 0.13165941157 -0.42692256067 1.1302186475 0.19454357241
          -0.0320005211 0.36817606623 -0.27749840282 -0.082432708598 0.43943737049 -0.21573489606
          -0.13332320612 0.50857627561 -0.15488178175 -0.18583619404 0.5793858005 -0.093170544038
          -0.23715449265 0.65009611201 -0.030828587741 -0.28887569597 0.71983262239 0.032049304049
          -0.34077579308 0.79029319086 0.094269980578 -0.39216574116 0.85959968543 0.15547191778
          -0.44467239223 0.9301134728 0.2180837785 -0.49492069926 1.0006715004 0.28243998893
          -0.10005994601 0.23991034011 -0.19189348607 -0.1501108098 0.31040902472 -0.13110313115
          -0.20172782723 0.38026172203 -0.068579331384 -0.25357218571 0.44999206586 -0.0072264957708
          -0.30385746055 0.52055977767 0.055183749777 -0.35668991096 0.58817060641 0.11748892899
          -0.40920888558 0.65933720012 0.18005089101 -0.46070873354 0.73017853171 0.24181544056
          -0.5117209037 0.80105423107 0.30339665466 -0.56402521929 0.8718648177 0.36616883651
          -0.16765949369 0.11043781431 -0.10631925696 -0.21810208124 0.18073849715 -0.04420660169
          -0.26814339419 0.25093654297 0.017272304845 -0.32181856149 0.32070066976 0.078198253179
          -0.37223984823 0.39068229367 0.1412374531 -0.4246588613 0.45847617529 0.2047582606
          -0.47615294444 0.53130330086 0.2660376144 -0.52771176439 0.60016162571 0.32660261209
          -0.57999831026 0.67112531745 0.38962423887 -0.63177133239 0.74273769702 0.45115185065
          -0.23426020319 -0.019817900892 -0.020486568809 -0.285724228 0.050778565718 0.041772876027
          -0.33720984198 0.12127529327 0.10424931535 -0.38866985681 0.19149300623 0.16550937968
          -0.43889190629 0.26271592144 0.22739809907 -0.49272018917 0.33084289113 0.29090534037
          -0.54397239371 0.40205504822 0.35262200781 -0.59542433695 0.47138030874 0.41429288273
          -0.64635719284 0.54277917445 0.47629741436 -0.69596794261 0.61387582687 0.53771612321
          -0.30279060349 -0.14819322177 0.067275193056 -0.35320736631 -0.077321783531 0.1268844412
          -0.40428591584 -0.005738820482 0.19080337298 -0.45511252853 0.064118031206 0.25172987264
          -0.50617377488 0.13370354128 0.31303996924 -0.5599363085 0.20105360352 0.37830471801
          -0.61227445528 0.27226256523 0.43802123427 -0.66386636232 0.34235751972 0.49978969474
          -0.71405677983 0.41373265224 0.56138071017 -0.76740136294 0.4843124665 0.62363513448
          -0.37028033801 -0.27255086165 0.15520576422 -0.42086774466 -0.20663399923 0.21193334278
          -0.47357891788 -0.137536304 0.27413277774 -0.5181669477 -0.064955840898 0.3396986601
          -0.57589155651 0.0085016597566 0.39848667484 -0.62747656421 0.074256986445 0.4643170865
          -0.67941012282 0.1392542045 0.52421016473 -0.72769407255 0.21601525557 0.5887486792
          -0.7791095514 0.28696078313 0.64760958684 -0.83781656887 0.35440337102 0.7083347831
          0.30752053624 0.80414769443 -0.70043305296 0.25650502216 0.87340482161 -0.6387614552
          0.20346109076 0.94231292699 -0.57810340767 0.15174509975 1.0125513916 -0.51577267738
          0.099415036271 1.0844069862 -0.45251418517 0.048674633172 1.1536243985 -0.39022182791
          -0.0031320810598 1.2248149186 -0.32774011905 -0.055640753778 1.2941610951 -0.26584853319
          -0.10576094848 1.3628987668 -0.20400586755 -0.15613202732 1.4338643386 -0.141137214
          0.23774377059 0.67170100032 -0.61562243877 0.1864687868 0.74334518313 -0.5529263051
          0.13414004115 0.81362856525 -0.49088206949 0.08360337743 0.88401751329 -0.42892601282
          0.030598014791 0.9544304808 -0.36614304767 -0.020374695318 1.0246079812 -0.3039766073
          -0.072177089065 1.0947538548 -0.24294352024 -0.12356209803 1.1654920266 -0.17950067033
          -0.17587099768 1.2344793463 -0.11797947496 -0.22538826114 1.3055990586 -0.054545979666
          0.16987682774 0.54421990147 -0.52929153364 0.11710008554 0.61398476753 -0.468021333
          0.066546263481 0.68412601347 -0.40467802348 0.015013852695 0.75397795777 -0.34305972609
          -0.036255265805 0.82475298886 -0.28085445989 -0.088336619965 0.89493796128 -0.21870599006
          -0.13932192806 0.96503669052 -0.15636279861 -0.19162195143 1.0355902291 -0.093387365642
          -0.24264747568 1.1067621175 -0.031479787753 -0.29410526542 1.1762882417 0.029978000396
          0.10119163836 0.41572816108 -0.44216023548 0.049796100026 0.4830455551 -0.38095324259
          -0.0015288514919 0.55453738333 -0.31883818208 -0.053109764623 0.62502318932 -0.2565329112
          -0.10434191344 0.69523489118 -0.19486895232 -0.15608289365 0.76537931081 -0.1323557288
          -0.20799967441 0.83532861391 -0.070139946395 -0.25967244479 0.90568979067 -0.0081084776348
          -0.31078893885 0.9758288944 0.055164708903 -0.36447421119 1.0462655388 0.11430332062
          0.033576040666 0.28346639318 -0.35635333885 -0.017536465744 0.35440452033 -0.29479263368
          -0.069156344729 0.42528804112 -0.23261838026 -0.1208154775 0.49548521165 -0.17052448541
          -0.17225026274 0.56574309092 -0.10916476438 -0.22411969177 0.6355495069 -0.046135361875
          -0.27583438886 0.70559040208 0.016047663311 -0.32776126991 0.77586926122 0.077915272213
          -0.37870164076 0.84605603788 0.13996832482 -0.42978005571 0.91652512672 0.20325005882
          -0.033448475665 0.15554970062 -0.27070932531 -0.085682396516 0.22587721683 -0.20808177356
          -0.1373064078 0.2960125457 -0.14684092735 -0.18864713146 0.36609308951 -0.08448755399
          -0.23970708515 0.43692874694 -0.022398467066 -0.29219260414 0.50605322618 0.039921840381
          -0.34391756739 0.57552562242 0.10218150313 -0.39519680025 0.64659039614 0.16412665414
          -0.44732935428 0.71651937724 0.22601438217 -0.49803755877 0.78705897222 0.28690238848
          -0.10162350821 0.025594627834 -0.18383373807 -0.15360809829 0.096433855584 -0.12280853973
          -0.20508764063 0.16639747327 -0.061055897031 -0.25619088014 0.23730650394 0.0017137462899
          -0.30667907762 0.30667882438 0.062768618378 -0.35843639139 0.37537410635 0.12612401208
          -0.41168239174 0.44680998376 0.18824728856 -0.46246408333 0.51716167081 0.25042604827
          -0.51452570098 0.58782001211 0.31182498103 -0.56573172372 0.6572315064 0.37437762405
          -0.1688271299 -0.10283779302 -0.098618091209 -0.22102247677 -0.033269547625 -0.035591467344
          -0.2717037421 0.03719470225 0.024847702767 -0.32412505627 0.10776382502 0.087726616289
          -0.37525379037 0.17813608231 0.14939877836 -0.42804008258 0.24700630199 0.21262118978
          -0.47873892753 0.31719622923 0.27476546662 -0.52991229666 0.38713938812 0.33560528411
          -0.58236299924 0.45797043567 0.39897428617 -0.63226180318 0.52902026105 0.45878895561
          -0.23804602795 -0.2331476185 -0.0094852103981 -0.28851833747 -0.16130271028 0.049924757571
          -0.3393882879 -0.090542385806 0.11312993029 -0.39045568582 -0.020538263393 0.17437838461
          -0.44069419176 0.050523163087 0.23495273279 -0.49577328622 0.11689352568 0.29743541077
          -0.54754484471 0.18722468619 0.36105300137 -0.5995911992 0.2578916592 0.42231986243
          -0.64918281519 0.32969041623 0.48391105391 -0.70113552865 0.3991535858 0.54622413802
          -0.3040032596 -0.3635150206 0.075078853242 -0.35472972064 -0.28984583817 0.13996634779
          -0.40748579098 -0.22076844455 0.19925245851 -0.45788963977 -0.14735974435 0.26024148671
          -0.50994080791 -0.078503008116 0.32011942925 -0.56333102227 -0.010967387511 0.38313849425
          -0.61637378316 0.058633259541 0.44571897761 -0.66669245582 0.12823684563 0.50992259577
          -0.71879236497 0.19747391138 0.57063798963 -0.76442870291 0.26990051647 0.63355180676
          0.36711936722 0.71587049275 -0.77822080537 0.31882774997 0.78874158601 -0.71567424446
          0.2682777103 0.86008208475 -0.65482922609 0.2156921903 0.93046823594 -0.59253999892
          0.16383640417 0.99919099195 -0.52972023849 0.11230870776 1.0694982692 -0.4684846946
          0.060571478581 1.1397378002 -0.40648422349 0.0086733308134 1.209991561 -0.34489202123
          -0.043255537233 1.281240298 -0.2796910422 -0.093134404495 1.3509821157 -0.21369564825
          0.30134019955 0.58705503435 -0.6926183579 0.25081402135 0.65939212376 -0.63123466205
          0.19913494728 0.72962512935 -0.56895614029 0.14738231839 0.80052412738 -0.50671437846
          0.096061554792 0.87021267351 -0.44484825279 0.044512632345 0.94041763359 -0.38252311647
          -0.0064130413079 1.0104798066 -0.3201836648 -0.058633909622 1.0811572648 -0.25806870585
          -0.11055371576 1.1509673299 -0.1952973542 -0.16315833563 1.2213939727 -0.13250580596
          0.23494946136 0.4602580397 -0.60630203636 0.18337081012 0.53079562374 -0.54536523785
          0.13112755779 0.59948914336 -0.48379458917 0.079361373173 0.67032415766 -0.42072556477
          0.02811186365 0.7406093668 -0.35862103249 -0.023390156234 0.81102428993 -0.29649622005
          -0.075043888008 0.88118651673 -0.23436295473 -0.12603729584 0.95166156133 -0.17218976633
          -0.17857984453 1.0216710243 -0.1107237639 -0.23063063025 1.091220152 -0.048159783821
          0.16561962604 0.33008362886 -0.52004248627 0.11480428368 0.39999297059 -0.45909752294
          0.062989491377 0.4707947446 -0.39684911715 0.011635566275 0.54066856338 -0.33481080551
          -0.039676912467 0.61118524965 -0.27276087677 -0.091283641693 0.68142100197 -0.21037565795
          -0.14322880306 0.75146652929 -0.14814711817 -0.19525198884 0.82158218024 -0.086172239595
          -0.24568379069 0.89174921219 -0.023807192177 -0.29840545099 0.96201441639 0.038559058391
          0.098132445456 0.20092715605 -0.43486932386 0.046783776836 0.27056281621 -0.37292051114
          -0.0048749980059 0.34113633777 -0.31086868878 -0.056259106619 0.41168003738 -0.24834091875
          -0.10754605512 0.48148572254 -0.18702212332 -0.15933635905 0.55170706433 -0.12430930625
          -0.21137145879 0.62186113281 -0.062118034684 -0.26284316957 0.69224787127 -0.00023194384458
          -0.31392074342 0.76226833099 0.062411160082 -0.36582192065 0.8324470863 0.12377662641
          0.030693412676 0.070841402225 -0.34833094116 -0.021197261416 0.14154959663 -0.28662556351
          -0.072663134579 0.21147848569 -0.22467995014 -0.12388519507 0.2820344343 -0.16257799235
          -0.17504409062 0.35284209369 -0.10096086278 -0.22759822651 0.42145501153 -0.038375909561
          -0.27889605921 0.49238480737 0.024006724162 -0.33049008589 0.5624224122 0.086021381611
          -0.38231601479 0.632565716 0.14815103727 -0.43391879789 0.70278225196 0.20979509206
          -0.037053345445 -0.058881504111 -0.26171512592 -0.08883275479 0.011980806249 -0.19944924607
          -0.14042613887 0.082170652526 -0.1385977153 -0.19159564678 0.15290752536 -0.076084682097