<?xml version="1.0"?>
<VTKFile type="UnstructuredGrid" version="0.1" byte_order="LittleEndian" compressor="vtkZLibDataCompressor">
  <UnstructuredGrid>
    <FieldData>
      <DataArray type="Float64" Name="TIME" NumberOfTuples="1" format="ascii" RangeMin="1.2577571506" RangeMax="1.2577571506">
        1.2577571506
      </DataArray>
    </FieldData>
    <Piece NumberOfPoints="1000" NumberOfCells="0">
      <PointData>
        <DataArray type="Float64" Name="Damage" format="ascii" RangeMin="0" RangeMax="0.5081300813">
          0.024193548387 0.006711409396 0 0 0 0
          0 0.010204081633 0.046979865772 0.12903225806 0.006711409396 0.027932960894
          0 0 0 0 0 0
          0.033519553073 0.013422818792 0 0.055084745763 0.071428571429 0.040345821326
          0.014164305949 0.012987012987 0.040345821326 0.071428571429 0.055084745763 0.0051020408163
          0 0.067669172932 0.11239193084 0.1074168798 0.037688442211 0.034562211982
          0.1074168798 0.11239193084 0.067669172932 0 0 0.074349442379
          0.16147308782 0.16834170854 0.12376237624 0.11286681716 0.16834170854 0.16147308782
          0.074349442379 0 0 0.084459459459 0.2 0.25806451613
          0.33860045147 0.39211618257 0.25806451613 0.2 0.084459459459 0
          0 0.093984962406 0.25360230548 0.36061381074 0.41959798995 0.46774193548
          0.36061381074 0.25360230548 0.093984962406 0 0 0.10593220339
          0.31493506494 0.40057636888 0.4447592068 0.49090909091 0.40057636888 0.31493506494
          0.10593220339 0 0 0.17318435754 0.3686440678 0.43984962406
          0.44981412639 0.5 0.43984962406 0.3686440678 0.17318435754 0.006711409396
          0.016129032258 0.18791946309 0.36734693878 0.44343891403 0.46428571429 0.5081300813
          0.44343891403 0.36734693878 0.18791946309 0.016129032258 0.006711409396 0
          0 0 0 0 0.0037593984962 0.012711864407
          0.016759776536 0.046979865772 0 0.027906976744 0 0
          0 0 0 0 0.032558139535 0
          0 0.056338028169 0.072776280323 0.040669856459 0.014117647059 0.012931034483
          0.040669856459 0.072776280323 0.056338028169 0 0 0.06875
          0.11483253589 0.10828025478 0.0375782881 0.034416826004 0.10828025478 0.11483253589
          0.06875 0 0 0.074303405573 0.16235294118 0.16910229645
          0.12371134021 0.11257035647 0.16910229645 0.16235294118 0.074303405573 0
          0 0.084269662921 0.20043103448 0.25812619503 0.33771106942 0.39242685026
          0.25812619503 0.20043103448 0.084269662921 0 0 0.09375
          0.25358851675 0.36093418259 0.41962421712 0.46845124283 0.36093418259 0.25358851675
          0.09375 0 0 0.10563380282 0.3153638814 0.4019138756
          0.44470588235 0.49137931034 0.4019138756 0.3153638814 0.10563380282 0
          0 0.16744186047 0.36971830986 0.440625 0.44582043344 0.49719101124
          0.440625 0.36971830986 0.16744186047 0 0.013422818792 0.17877094972
          0.3686440678 0.44360902256 0.44981412639 0.5 0.43984962406 0.3686440678
          0.17877094972 0.006711409396 0 0 0 0
          0 0 0.0028818443804 0.0064935064935 0.012711864407 0.020408163265
          0 0.024647887324 0 0 0 0
          0 0 0.028169014085 0 0 0.051212938005
          0.06875 0.038817005545 0.012635379061 0.011666666667 0.038817005545 0.06875
          0.051212938005 0 0 0.064593301435 0.10905730129 0.10491803279
          0.036858974359 0.034023668639 0.10491803279 0.10905730129 0.064593301435 0
          0 0.070588235294 0.15523465704 0.16506410256 0.12283464567 0.11271676301
          0.16506410256 0.15523465704 0.070588235294 0 0 0.081896551724
          0.19333333333 0.25443786982 0.33959537572 0.38985313752 0.25443786982 0.19333333333
          0.081896551724 0 0 0.093301435407 0.24768946396 0.35573770492
          0.41987179487 0.46449704142 0.35573770492 0.24768946396 0.093301435407 0
          0 0.10781671159 0.30833333333 0.39556377079 0.4440433213 0.48666666667
          0.39556377079 0.30833333333 0.10781671159 0 0 0.16197183099
          0.35579514825 0.43062200957 0.44470588235 0.49137931034 0.43062200957 0.35579514825
          0.16197183099 0 0 0.16101694915 0.3538961039 0.42939481268
          0.4447592068 0.49090909091 0.42939481268 0.3538961039 0.16101694915 0
          0 0 0 0 0 0
          0 0.0028818443804 0.0075187969925 0 0 0.025
          0 0 0 0 0 0
          0.025 0 0 0.05023923445 0.068391866913 0.039344262295
          0.012820512821 0.011834319527 0.039344262295 0.068391866913 0.05023923445 0
          0 0.063694267516 0.10819672131 0.10465116279 0.036984352774 0.034120734908
          0.10465116279 0.10819672131 0.063694267516 0 0 0.070981210856
          0.15544871795 0.16500711238 0.12290502793 0.11282051282 0.16500711238 0.15544871795
          0.070981210856 0 0 0.082217973231 0.19378698225 0.25459317585
          0.33974358974 0.38981042654 0.25459317585 0.19378698225 0.082217973231 0
          0 0.093418259023 0.24918032787 0.35610465116 0.41963015647 0.46456692913
          0.35610465116 0.24918032787 0.093418259023 0 0 0.10765550239
          0.30868761553 0.39508196721 0.44391025641 0.48668639053 0.39508196721 0.30868761553
          0.10765550239 0 0 0.1625 0.35645933014 0.43099787686
          0.44467640919 0.4913957935 0.43099787686 0.35645933014 0.1625 0
          0 0.16165413534 0.35446685879 0.42966751918 0.44472361809 0.49078341014
          0.42966751918 0.35446685879 0.16165413534 0 0 0
          0 0 0 0 0 0
          0 0 0 0.02786377709 0 0
          0 0 0 0 0.02786377709 0
          0 0.054117647059 0.070397111913 0.040064102564 0.014173228346 0.013005780347
          0.040064102564 0.070397111913 0.054117647059 0 0 0.066805845511
          0.11057692308 0.106685633 0.037709497207 0.034615384615 0.106685633 0.11057692308
          0.066805845511 0 0 0.074226804124 0.16062992126 0.16759776536
          0.12362637363 0.11292346299 0.16759776536 0.16062992126 0.074226804124 0
          0 0.084427767355 0.19942196532 0.25769230769 0.33877038896 0.39145496536
          0.25769230769 0.19942196532 0.084427767355 0 0 0.093945720251
          0.25320512821 0.35988620199 0.41899441341 0.46666666667 0.35988620199 0.25320512821
          0.093945720251 0 0 0.10588235294 0.31407942238 0.39903846154
          0.44409448819 0.48988439306 0.39903846154 0.31407942238 0.10588235294 0
          0 0.16718266254 0.36705882353 0.43841336117 0.44536082474 0.49530956848
          0.43841336117 0.36705882353 0.16718266254 0 0 0.16728624535
          0.36543909348 0.43718592965 0.44554455446 0.49435665914 0.43718592965 0.36543909348
          0.16728624535 0 0 0 0 0
          0 0 0 0 0 0
          0 0.025280898876 0 0 0 0
          0 0 0.025280898876 0 0 0.049568965517
          0.066666666667 0.038461538462 0.013005780347 0.012016021362 0.038461538462 0.066666666667
          0.049568965517 0 0 0.06309751434 0.1050295858 0.10367454068
          0.037179487179 0.034360189573 0.10367454068 0.1050295858 0.06309751434 0
          0 0.071294559099 0.15462427746 0.1641025641 0.12296110414 0.11316397229
          0.1641025641 0.15462427746 0.071294559099 0 0 0.082616179002
          0.19359145527 0.25473933649 0.34064665127 0.38930481283 0.25473933649 0.19359145527
          0.082616179002 0 0 0.093690248566 0.24852071006 0.35564304462
          0.41923076923 0.46327014218 0.35564304462 0.24852071006 0.093690248566 0
          0 0.10775862069 0.30833333333 0.39349112426 0.4436416185 0.48598130841
          0.39349112426 0.30833333333 0.10775862069 0 0 0.16292134831
          0.35560344828 0.43021032505 0.44465290807 0.49053356282 0.43021032505 0.35560344828
          0.16292134831 0 0 0.16216216216 0.35324675325 0.42857142857
          0.44469525959 0.48962655602 0.42857142857 0.35324675325 0.16216216216 0
          0.0045248868778 0.0037593984962 0 0 0 0
          0 0 0 0 0 0.025
          0 0 0 0 0 0
          0.025 0 0 0.05023923445 0.068391866913 0.039344262295
          0.012820512821 0.011834319527 0.039344262295 0.068391866913 0.05023923445 0
          0 0.063694267516 0.10819672131 0.10465116279 0.036984352774 0.034120734908
          0.10465116279 0.10819672131 0.063694267516 0 0 0.070981210856
          0.15544871795 0.16500711238 0.12290502793 0.11282051282 0.16500711238 0.15544871795
          0.070981210856 0 0 0.082217973231 0.19378698225 0.25459317585
          0.33974358974 0.38981042654 0.25459317585 0.19378698225 0.082217973231 0
          0 0.093418259023 0.24918032787 0.35610465116 0.41963015647 0.46456692913
          0.35610465116 0.24918032787 0.093418259023 0 0 0.10765550239
          0.30868761553 0.39508196721 0.44391025641 0.48668639053 0.39508196721 0.30868761553
          0.10765550239 0 0 0.1625 0.35645933014 0.43099787686
          0.44467640919 0.4913957935 0.43099787686 0.35645933014 0.1625 0
          0 0.16165413534 0.35446685879 0.42966751918 0.44472361809 0.49078341014
          0.42966751918 0.35446685879 0.16165413534 0 0.025510204082 0.0084745762712
          0 0 0 0 0 0
          0 0 0.0042372881356 0.024647887324 0 0
          0 0 0 0 0.024647887324 0
          0 0.051212938005 0.06875 0.038817005545 0.012635379061 0.011666666667
          0.038817005545 0.06875 0.051212938005 0 0 0.064593301435
          0.10905730129 0.10491803279 0.036858974359 0.034023668639 0.10491803279 0.10905730129
          0.064593301435 0 0 0.070588235294 0.15523465704 0.16506410256
          0.12283464567 0.11271676301 0.16506410256 0.15523465704 0.070588235294 0
          0 0.081896551724 0.19333333333 0.25443786982 0.33959537572 0.38985313752
          0.25443786982 0.19333333333 0.081896551724 0 0 0.093301435407
          0.24768946396 0.35573770492 0.41987179487 0.46449704142 0.35573770492 0.24768946396
          0.093301435407 0 0 0.10781671159 0.30833333333 0.39556377079
          0.4440433213 0.48666666667 0.39556377079 0.30833333333 0.10781671159 0
          0 0.16197183099 0.35579514825 0.43062200957 0.44470588235 0.49137931034
          0.43062200957 0.35579514825 0.16197183099 0 0 0.16101694915
          0.3538961039 0.42939481268 0.4447592068 0.49090909091 0.42939481268 0.3538961039
          0.16101694915 0 0.040268456376 0.011173184358 0.0084745762712 0
          0 0 0 0 0 0.006711409396
          0.0055865921788 0.027906976744 0 0 0 0
          0 0 0.027906976744 0 0 0.056338028169
          0.072776280323 0.040669856459 0.014117647059 0.012931034483 0.040669856459 0.072776280323
          0.056338028169 0 0 0.06875 0.11483253589 0.10828025478
          0.0375782881 0.034416826004 0.10828025478 0.11483253589 0.06875 0
          0 0.074303405573 0.16235294118 0.16910229645 0.12371134021 0.11257035647
          0.16910229645 0.16235294118 0.074303405573 0 0 0.084269662921
          0.20043103448 0.25812619503 0.33771106942 0.39242685026 0.25812619503 0.20043103448
          0.084269662921 0 0 0.09375 0.25358851675 0.36093418259
          0.41962421712 0.46845124283 0.36093418259 0.25358851675 0.09375 0
          0 0.10563380282 0.3153638814 0.4019138756 0.44470588235 0.49137931034
          0.4019138756 0.3153638814 0.10563380282 0 0 0.16744186047
          0.36971830986 0.440625 0.44582043344 0.49719101124 0.440625 0.36971830986
          0.16744186047 0 0.006711409396 0.16759776536 0.3686440678 0.44360902256
          0.44981412639 0.5 0.43984962406 0.3686440678 0.17318435754 0.006711409396
          0.024193548387 0.046979865772 0.020408163265 0.0045248868778 0 0
          0 0 0 0.008064516129 0.020134228188 0.033519553073
          0.0042372881356 0 0 0 0 0
          0.027932960894 0 0.0051020408163 0.055084745763 0.071428571429 0.040345821326
          0.014164305949 0.012987012987 0.040345821326 0.071428571429 0.055084745763 0
          0 0.067669172932 0.11239193084 0.1074168798 0.037688442211 0.034562211982
          0.1074168798 0.11239193084 0.067669172932 0 0 0.074349442379
          0.16147308782 0.16834170854 0.12376237624 0.11286681716 0.16834170854 0.16147308782
          0.074349442379 0 0 0.084459459459 0.2 0.25806451613
          0.33860045147 0.39211618257 0.25806451613 0.2 0.084459459459 0
          0 0.093984962406 0.25360230548 0.36061381074 0.41959798995 0.46774193548
          0.36061381074 0.25360230548 0.093984962406 0 0 0.10593220339
          0.31493506494 0.40057636888 0.4447592068 0.49090909091 0.40057636888 0.31493506494
          0.10593220339 0 0.006711409396 0.16759776536 0.3686440678 0.43984962406
          0.44981412639 0.5 0.43984962406 0.3686440678 0.16759776536 0.006711409396
          0.024193548387 0.1744966443 0.36734693878 0.44343891403 0.46428571429 0.5081300813
          0.44343891403 0.36734693878 0.18120805369 0.024193548387
        </DataArray>
        <DataArray type="Float64" Name="Displacement" NumberOfComponents="3" format="ascii" RangeMin="0.37956522" RangeMax="2.6461929624">
          -0.078517539458 2.233298929 -0.35102007055 -0.1708286094 2.2420283982 -0.25327474688
          -0.25638520616 2.2687168034 -0.14386705882 -0.34424861045 2.2885726738 -0.041499979613
          -0.4273561854 2.3125061792 0.065371785343 -0.51643659371 2.3355512154 0.17371694552
          -0.60762677153 2.3533238249 0.27867767427 -0.69512869049 2.3806806049 0.38841745726
          -0.78064411431 2.3925672244 0.50517339972 -0.8487706036 2.4398341566 0.57370283693
          -0.1092001379 2.0069806214 -0.32474147647 -0.19676806402 2.0268560686 -0.2206710125
          -0.27830794729 2.0504767914 -0.1192037972 -0.3696489397 2.0709903672 -0.0084149944073
          -0.45550893124 2.0922948429 0.094017978446 -0.54522995149 2.1147244682 0.20121258663
          -0.63159739267 2.1356886315 0.3084659907 -0.71531630834 2.1624748679 0.41175472041
          -0.80574844159 2.1817765813 0.51750274904 -0.88845019373 2.2064438364 0.62349425006
          -0.12819360917 1.783222887 -0.30760401459 -0.21852651578 1.8104713463 -0.1953880484
          -0.30416222122 1.8340317972 -0.088967623541 -0.39084879633 1.8554141978 0.017197282313
          -0.47740612655 1.8789961519 0.12328655687 -0.56211493037 1.8982974337 0.22858809424
          -0.65248027194 1.9218242659 0.33519130522 -0.73812971424 1.9435200164 0.44258093245
          -0.82711100041 1.9654799434 0.54719698243 -0.91341743256 1.9931122356 0.64939297203
          -0.15197586728 1.5706777847 -0.27887213103 -0.24032591054 1.5947617069 -0.16854350224
          -0.32698062088 1.6158127589 -0.061671710216 -0.41309364454 1.6395490538 0.04396007934
          -0.50047011565 1.6630090424 0.15091071965 -0.58671490888 1.686441673 0.25846622906
          -0.67321411575 1.7044308831 0.36276814946 -0.76149624087 1.7263581394 0.46811345861
          -0.84649850419 1.7495179778 0.57577404154 -0.9340997983 1.7743290375 0.68192283137
          -0.17273313428 1.3533607545 -0.25123157877 -0.26379644242 1.3779659835 -0.13986369352
          -0.35055997584 1.4004338889 -0.033747877061 -0.43750884536 1.4236390796 0.070393336818
          -0.52406373955 1.446320063 0.17901751609 -0.61058060834 1.4652377599 0.28467422495
          -0.69650674023 1.4885199009 0.39145709044 -0.78335084594 1.511130773 0.49630517723
          -0.87174987014 1.5340657091 0.60157483402 -0.95438540009 1.5559861806 0.71045036983
          -0.19541820034 1.1365180385 -0.22395456575 -0.28596073419 1.1616271218 -0.11481173769
          -0.37358880155 1.1854152071 -0.0065007849391 -0.46048098954 1.2079517384 0.10038861618
          -0.54953781059 1.2323991451 0.20545094442 -0.63225025234 1.2493012814 0.3122166711
          -0.71814691432 1.2698720805 0.41711117022 -0.80576894202 1.2947019588 0.52278816748
          -0.890842787 1.3179372765 0.63100313009 -0.97844827731 1.3388608742 0.73745693187
          -0.22442910018 0.92445482498 -0.18688207902 -0.3108428641 0.94510647867 -0.083396850357
          -0.3974478143 0.9692262944 0.021101194456 -0.48649913687 0.99329094354 0.12614577908
          -0.57301121037 1.0196795679 0.23262805935 -0.65462806258 1.0317896018 0.3380582343
          -0.74320574785 1.056558542 0.44601724306 -0.82756878759 1.07841414 0.54999104502
          -0.91812097025 1.101857771 0.65614174539 -1.0055797052 1.1252419492 0.76001454634
          -0.2498985072 0.70542029532 -0.15681202666 -0.33304236534 0.72960353172 -0.052620335527
          -0.41979344606 0.75368694822 0.050325817354 -0.50696281418 0.77696226224 0.15798255093
          -0.59118965891 0.8029703786 0.26533631121 -0.67557830188 0.81680788691 0.36493022379
          -0.76207144369 0.83823283941 0.47039929913 -0.85011457284 0.86280392917 0.57718618558
          -0.93762542531 0.88341874336 0.68515239252 -1.0265061472 0.90533572892 0.79018933972
          -0.26935013306 0.48987235491 -0.13438313542 -0.35573016012 0.51220514798 -0.023433343821
          -0.44106055984 0.53651748621 0.08336729004 -0.52994089213 0.56016460924 0.18432685478
          -0.61502592733 0.58141799018 0.29366680162 -0.69853224399 0.59752789356 0.3980744092
          -0.78324170531 0.61973017739 0.50190476318 -0.87096512808 0.64174999214 0.60602247655
          -0.9576570612 0.66555021616 0.71217265807 -1.0479030562 0.68970788507 0.82085490801
          -0.28787881986 0.26600231497 -0.099554841631 -0.36995575023 0.28799515957 0.0096592123361
          -0.46641558797 0.31866002931 0.11119484641 -0.54813471064 0.35049527788 0.22255873593
          -0.62903611638 0.38132258002 0.33350162992 -0.7114174126 0.37822347194 0.41389976424
          -0.8019859561 0.40128969213 0.52380703972 -0.89236871294 0.42262647932 0.63351484932
          -0.9739950973 0.43836246604 0.73875878717 -1.0669864333 0.48101201654 0.84739472406
          0.022781389448 2.1897899388 -0.49230116445 -0.063226736518 2.2171759485 -0.37888681248
          -0.15315848538 2.2385302375 -0.27236187334 -0.24008951725 2.2599252172 -0.16660167475
          -0.33054515036 2.2809021366 -0.061864914901 -0.41425585434 2.303717562 0.044514312746
          -0.50286108313 2.3272140623 0.15057294754 -0.58660792638 2.3514388087 0.25761170668
          -0.67992457217 2.3736819572 0.35961055538 -0.75812419617 2.3947287875 0.47736080667
          -0.0016682326558 1.9743322622 -0.45819666261 -0.087832308319 1.9982569474 -0.35285075202
          -0.17628960373 2.0212514182 -0.24606987254 -0.26397542593 2.0440587295 -0.14025160974
          -0.35028217756 2.0653496148 -0.033541362665 -0.43613837435 2.0874557064 0.070837762592
          -0.52336612377 2.1143159457 0.18057293711 -0.61120328464 2.131913389 0.28299263635
          -0.69713979299 2.1558536568 0.39004624268 -0.7815979019 2.1758070128 0.4983136009
          -0.02254737202 1.7574450986 -0.43241709862 -0.11131223737 1.7817147256 -0.32632851864
          -0.19757155406 1.8043304145 -0.21888527095 -0.2858195477 1.8283857201 -0.11310341345
          -0.37307931321 1.8510141148 -0.0065659363956 -0.45953167957 1.873325347 0.10097474301
          -0.54646564835 1.8956118182 0.20726839524 -0.63269781975 1.915658469 0.31069866548
          -0.71896873842 1.9393991467 0.41722313217 -0.80602284139 1.9629910635 0.52197211636
          -0.045607331582 1.5426594392 -0.40333045852 -0.13381618678 1.56555913 -0.29732221464
          -0.21997471027 1.5875901684 -0.19182378433 -0.30869853202 1.6136336575 -0.084701922666
          -0.39483464379 1.6346928216 0.021533195198 -0.481727224 1.6562209576 0.12762720974
          -0.56878406387 1.678314588 0.23348013931 -0.65367169816 1.700071529 0.3386086081
          -0.74230945073 1.7234687386 0.44448615183 -0.82907263755 1.7435235534 0.55148694659
          -0.070168081894 1.3275622269 -0.37395585615 -0.15658874373 1.3495696003 -0.26857183602
          -0.24439011261 1.3729985724 -0.16339901336 -0.33123550927 1.3958543014 -0.057194571567
          -0.41794359642 1.4200534646 0.048154744136 -0.50357292208 1.4404202694 0.15524644635
          -0.5908133979 1.4614361744 0.26087177539 -0.67716063654 1.4837408418 0.36615875851
          -0.76418115589 1.5064173446 0.47212793464 -0.85059271099 1.5293183637 0.57776278245
          -0.093729504365 1.1114767616 -0.3452844481 -0.18016672131 1.1340630448 -0.24117548128
          -0.2673895672 1.1560045164 -0.13479452337 -0.35527554156 1.1801227431 -0.029914810538
          -0.44180980798 1.2032551356 0.07652454433 -0.52495621487 1.2216876442 0.18044938934
          -0.61250573712 1.2438587803 0.28677836531 -0.70009390346 1.2669786004 0.3924095453
          -0.78743641236 1.2906014762 0.49983757478 -0.87569294485 1.3130878644 0.60431854269
          -0.11778343975 0.89581927554 -0.31775243601 -0.2031525048 0.91729236077 -0.21214836461
          -0.28876448873 0.94129294244 -0.10807888325 -0.37688056221 0.96416960388 -0.00064358326576
          -0.46475700222 0.98878564607 0.10535083618 -0.54838565975 1.0055572801 0.21098447549
          -0.63386410235 1.0273360745 0.31572715933 -0.72062728199 1.0515311094 0.42191492576
          -0.80817378075 1.0733845493 0.52700163257 -0.89970630466 1.0977754007 0.63107144565
          -0.13909097315 0.67724198758 -0.28813680015 -0.22672841385 0.70189371885 -0.18503266718
          -0.31379380206 0.72512427611 -0.077284966402 -0.40033548874 0.74831681647 0.028049468674
          -0.48900113017 0.77401731054 0.1341606344 -0.56966386426 0.78823936088 0.23773632337
          -0.65537445435 0.81023369862 0.34297162469 -0.74449373089 0.8340406882 0.44840496909
          -0.83159713625 0.85803741984 0.55577928839 -0.91684738549 0.8794175191 0.66120958387
          -0.16152211168 0.46039175963 -0.25902438551 -0.24980866151 0.48630468164 -0.15303063807
          -0.33599873563 0.50942569416 -0.047946534746 -0.42257881124 0.5331963173 0.058317278666
          -0.50989046756 0.55750991085 0.16396939656 -0.59158834834 0.56992402514 0.26588525989
          -0.67843998663 0.59354060407 0.37053390137 -0.76617554601 0.61706954069 0.47736726283
          -0.85282688061 0.64123168464 0.58363972336 -0.93848714361 0.66129575982 0.688841741
          -0.18486190353 0.24362946622 -0.2248121795 -0.27050024019 0.26924328155 -0.12394538434
          -0.35865049313 0.29488680211 -0.017441740295 -0.44683675086 0.32024428117 0.083408162712
          -0.53011715989 0.34376711637 0.19348953811 -0.61451260594 0.35624489999 0.29542132276
          -0.69953559949 0.38025066114 0.4022076333 -0.78842860557 0.4014584839 0.50555575678
          -0.87173512477 0.42758415687 0.61507764453 -0.96385873927 0.44935248089 0.71750219758
          0.12436743798 2.1633058522 -0.61516150162 0.041086354637 2.1904816962 -0.50716459272
          -0.047136886486 2.2092841596 -0.40345122564 -0.13351530577 2.2296878306 -0.29821782293
          -0.22136561912 2.2546369887 -0.19024843987 -0.30732696538 2.2746570389 -0.086275413326
          -0.39449510344 2.2988777786 0.019809168736 -0.48113654958 2.3229701747 0.12685925581
          -0.56778310109 2.3445653262 0.23464237844 -0.65388834071 2.3575482693 0.34502130125
          0.10488351497 1.9482335352 -0.5884346513 0.016890209784 1.9703825771 -0.48213663087
          -0.06994894441 1.9938904782 -0.37590933834 -0.15616292679 2.0165134351 -0.2702620216
          -0.2446601909 2.0381370024 -0.16313984611 -0.33099905187 2.061758658 -0.057775856764
          -0.41788207804 2.0832424515 0.049168745355 -0.50404121954 2.1073362206 0.15465453971
          -0.59101426106 2.1282603709 0.26006559903 -0.67898960126 2.1472253152 0.36996071912
          0.083474308858 1.7295041762 -0.55856077635 -0.006209922911 1.7559784794 -0.45570967413
          -0.092633335044 1.7779889345 -0.34850744941 -0.18021602283 1.7991512718 -0.24200851087
          -0.2669843901 1.8220264654 -0.13596287259 -0.35367692127 1.8444481697 -0.028940226337
          -0.44112284458 1.8670338331 0.076337217374 -0.52662816183 1.8896498445 0.18200116505
          -0.61449493169 1.9137431569 0.2875479636 -0.70101157799 1.9328373789 0.39258499931
          0.056413272155 1.5166794077 -0.53321433005 -0.029106317095 1.5380539325 -0.4261868388
          -0.11567897233 1.560835239 -0.32037471783 -0.20231356799 1.5838410572 -0.21419909893
          -0.28866670742 1.607023866 -0.10828541937 -0.37539504033 1.6288242357 -0.0021585457219
          -0.46345275505 1.6499091223 0.10373360961 -0.54923190255 1.6726382277 0.20955002399
          -0.6368830513 1.6973510204 0.3149277302 -0.72548903975 1.720618415 0.42371611404
          0.036037699096 1.2979217864 -0.50363507315 -0.052920898422 1.3220663876 -0.39840316407
          -0.13821321584 1.3440759937 -0.29184889141 -0.22524216415 1.3687282318 -0.18766338996
          -0.31186627161 1.3909274099 -0.080269532796 -0.39780894434 1.4122228672 0.025545785413
          -0.48364765946 1.4354266643 0.13221513605 -0.5716143382 1.4554750256 0.23678778372
          -0.66036489646 1.4801745178 0.34387835387 -0.74508935564 1.5029101859 0.44953373948
          0.012035728937 1.0816995537 -0.47575961536 -0.07405453747 1.1051004769 -0.37025091037
          -0.16055959604 1.1288953905 -0.26527868092 -0.24869441645 1.1523529548 -0.15900287606
          -0.33529814999 1.175228303 -0.053427237385 -0.41934211883 1.1946914497 0.051402173982
          -0.50621366248 1.2169505465 0.15781479461 -0.59226237712 1.2393836042 0.26448376215
          -0.68073136451 1.2631461749 0.37093549229 -0.76694460625 1.2867223432 0.47759212372
          -0.010525088536 0.86563564283 -0.44614605749 -0.097792042438 0.88924160113 -0.34207434123
          -0.18440965133 0.91290034558 -0.23531620879 -0.27129932402 0.93642694281 -0.13092020933
          -0.35641730059 0.96133033352 -0.023778040404 -0.43941286791 0.97882521647 0.080330117809
          -0.52824391048 1.0013362812 0.18630906701 -0.61636638769 1.0242755867 0.29207556514
          -0.70371463929 1.0469908276 0.39857211659 -0.79033530461 1.0699409689 0.50427118457
          -0.034344440538 0.65038705848 -0.41745272734 -0.12015013676 0.67244221445 -0.31208112073
          -0.20357618229 0.6995988615 -0.20646528305 -0.29348351522 0.72055093785 -0.10100235738
          -0.38120020289 0.74459656668 0.0071599261246 -0.46419852762 0.76128293037 0.10577948547
          -0.54945894078 0.78447229214 0.21416527908 -0.63575889614 0.8087566544 0.31854056286
          -0.72508900708 0.83055382689 0.425341934 -0.81152750349 0.85234131468 0.53178923478
          -0.055926702371 0.43345486566 -0.38862739134 -0.14298380983 0.45678983855 -0.28081428871
          -0.22914831125 0.48038795763 -0.17621482162 -0.31633121479 0.5062865778 -0.069901426404
          -0.40459398786 0.52974139863 0.034407941196 -0.48491217805 0.54490525187 0.13569235571
          -0.57217702973 0.56697118327 0.24128495405 -0.65907049444 0.58887929164 0.34763466305
          -0.7471604581 0.61318974765 0.45295696961 -0.83416413826 0.63772404949 0.55967307289
          -0.080457991623 0.21671573825 -0.35871005862 -0.16721202636 0.24298629637 -0.25289287775
          -0.25016762166 0.26443188041 -0.14831022805 -0.33846824974 0.29166905654 -0.039449403301
          -0.42438140459 0.3137255834 0.065368440132 -0.50451566822 0.32404164096 0.16259702098
          -0.59441698146 0.35087798528 0.26697835666 -0.67890505866 0.37317096806 0.37712043516
          -0.76940787666 0.39780402351 0.48030958178 -0.85333808221 0.41764252524 0.58887447503
          0.23610192746 2.1412580945 -0.74608105979 0.14683995176 2.1596436215 -0.64011550114
          0.056186626542 2.1808577595 -0.53427005089 -0.02825194192 2.205113548 -0.42815268854
          -0.1142782506 2.2274042717 -0.32095254118 -0.20116080416 2.2502226059 -0.21579583122
          -0.28880569702 2.273753313 -0.10832106525 -0.37567989577 2.2955605765 -0.0026150359668
          -0.46387474622 2.3167567532 0.10155012602 -0.55340377474 2.340652379 0.21214001388
          0.21023721889 1.9154701628 -0.72030191166 0.12300757232 1.9425803456 -0.61041956274
          0.036552712124 1.9656374724 -0.50543032738 -0.051330693304 1.9884499211 -0.39879250776
          -0.13785049453 2.0108588336 -0.29343220457 -0.22467963519 2.0338055907 -0.18732055858
          -0.31046408009 2.0578114868 -0.081580674953 -0.39819648397 2.0794218661 0.025268939441
          -0.48524943358 2.1017474948 0.1306619654 -0.57109493502 2.1230327144 0.23760713874
          0.18365554267 1.7030152155 -0.69131379874 0.10051794053 1.7264980125 -0.58394882201
          0.013428426657 1.7487789629 -0.47644802806 -0.072821293593 1.7726564979 -0.37191191283
          -0.15983085677 1.795614038 -0.26567208396 -0.24673526498 1.8182158207 -0.15964763406
          -0.33321947792 1.8407809716 -0.053774574009 -0.42107916477 1.8618116099 0.052455108152
          -0.50791979517 1.8858776746 0.15852761122 -0.59545226253 1.9087792683 0.26691658532
          0.1657547738 1.486302778 -0.66138216229 0.076995362351 1.5098637142 -0.55500980776
          -0.0092286732418 1.5328566036 -0.44987699613 -0.095916637758 1.5561608066 -0.3438769105
          -0.18264476455 1.5794285042 -0.23788289586 -0.26926419378 1.6018322774 -0.13181850873
          -0.35589015025 1.6241019046 -0.025986573002 -0.4424811221 1.6464512565 0.080327298834
          -0.52988943415 1.6694001487 0.18621201329 -0.61642508373 1.6909204525 0.29274095248
          0.14322389153 1.2693750008 -0.62937458091 0.054708158596 1.2943947606 -0.52672620216
          -0.03163425569 1.3168921049 -0.42153451966 -0.11884187462 1.3391061489 -0.31353022452
          -0.20541750535 1.3633934473 -0.20994698425 -0.29162688426 1.3843759721 -0.10420514552
          -0.37875404149 1.4067232956 0.001346994348 -0.46478165246 1.4292893779 0.10773883417
          -0.55242139963 1.4524253531 0.21405821335 -0.6373749556 1.4750135143 0.3171183961
          0.11871987561 1.0537247355 -0.60335314199 0.03108952047 1.0774883916 -0.49853338242
          -0.055009680414 1.1007697213 -0.39301877017 -0.1418688236 1.1240811678 -0.28761452369
          -0.22897901441 1.1480147706 -0.17973407122 -0.31305966358 1.1670019086 -0.076956308735
          -0.399996301 1.1907727069 0.029668759426 -0.4877230857 1.2128108554 0.13422161197
          -0.5743183445 1.2359250002 0.24115914266 -0.66085217249 1.2587743205 0.34766664961