<?xml version="1.0"?>
<VTKFile type="UnstructuredGrid" version="0.1" byte_order="LittleEndian" compressor="vtkZLibDataCompressor">
  <UnstructuredGrid>
    <FieldData>
      <DataArray type="Float64" Name="TIME" NumberOfTuples="1" format="ascii" RangeMin="1.2040551875" RangeMax="1.2040551875">
        1.2040551875
      </DataArray>
    </FieldData>
    <Piece NumberOfPoints="1000" NumberOfCells="0">
      <PointData>
        <DataArray type="Float64" Name="Damage" format="ascii" RangeMin="0" RangeMax="0.5081300813">
          0.024193548387 0.006711409396 0 0 0 0
          0 0.010204081633 0.040268456376 0.12096774194 0.006711409396 0.027932960894
          0 0 0 0 0 0
          0.033519553073 0.006711409396 0 0.055084745763 0.071428571429 0.040345821326
          0.014164305949 0.012987012987 0.040345821326 0.071428571429 0.055084745763 0
          0 0.067669172932 0.11239193084 0.1074168798 0.037688442211 0.034562211982
          0.1074168798 0.11239193084 0.067669172932 0 0 0.074349442379
          0.16147308782 0.16834170854 0.12376237624 0.11286681716 0.16834170854 0.16147308782
          0.074349442379 0 0 0.084459459459 0.2 0.25806451613
          0.33860045147 0.39211618257 0.25806451613 0.2 0.084459459459 0
          0 0.093984962406 0.25360230548 0.36061381074 0.41959798995 0.46774193548
          0.36061381074 0.25360230548 0.093984962406 0 0 0.10593220339
          0.31493506494 0.40057636888 0.4447592068 0.49090909091 0.40057636888 0.31493506494
          0.10593220339 0 0 0.17318435754 0.3686440678 0.43984962406
          0.44981412639 0.5 0.43984962406 0.3686440678 0.17318435754 0.006711409396
          0.016129032258 0.18791946309 0.36734693878 0.44343891403 0.46428571429 0.5081300813
          0.44343891403 0.36734693878 0.18791946309 0.016129032258 0.006711409396 0
          0 0 0 0 0.0037593984962 0.012711864407
          0.016759776536 0.046979865772 0 0.027906976744 0 0
          0 0 0 0 0.032558139535 0
          0 0.056338028169 0.072776280323 0.040669856459 0.014117647059 0.012931034483
          0.040669856459 0.072776280323 0.056338028169 0 0 0.06875
          0.11483253589 0.10828025478 0.0375782881 0.034416826004 0.10828025478 0.11483253589
          0.06875 0 0 0.074303405573 0.16235294118 0.16910229645
          0.12371134021 0.11257035647 0.16910229645 0.16235294118 0.074303405573 0
          0 0.084269662921 0.20043103448 0.25812619503 0.33771106942 0.39242685026
          0.25812619503 0.20043103448 0.084269662921 0 0 0.09375
          0.25358851675 0.36093418259 0.41962421712 0.46845124283 0.36093418259 0.25358851675
          0.09375 0 0 0.10563380282 0.3153638814 0.4019138756
          0.44470588235 0.49137931034 0.4019138756 0.3153638814 0.10563380282 0
          0 0.16744186047 0.36971830986 0.440625 0.44582043344 0.49719101124
          0.440625 0.36971830986 0.16744186047 0 0.013422818792 0.17877094972
          0.3686440678 0.44360902256 0.44981412639 0.5 0.43984962406 0.3686440678
          0.17877094972 0.006711409396 0 0 0 0
          0 0 0.0028818443804 0.0064935064935 0.012711864407 0.020408163265
          0 0.024647887324 0 0 0 0
          0 0 0.028169014085 0 0 0.051212938005
          0.06875 0.038817005545 0.012635379061 0.011666666667 0.038817005545 0.06875
          0.051212938005 0 0 0.064593301435 0.10905730129 0.10491803279
          0.036858974359 0.034023668639 0.10491803279 0.10905730129 0.064593301435 0
          0 0.070588235294 0.15523465704 0.16506410256 0.12283464567 0.11271676301
          0.16506410256 0.15523465704 0.070588235294 0 0 0.081896551724
          0.19333333333 0.25443786982 0.33959537572 0.38985313752 0.25443786982 0.19333333333
          0.081896551724 0 0 0.093301435407 0.24768946396 0.35573770492
          0.41987179487 0.46449704142 0.35573770492 0.24768946396 0.093301435407 0
          0 0.10781671159 0.30833333333 0.39556377079 0.4440433213 0.48666666667
          0.39556377079 0.30833333333 0.10781671159 0 0 0.16197183099
          0.35579514825 0.43062200957 0.44470588235 0.49137931034 0.43062200957 0.35579514825
          0.16197183099 0 0 0.16101694915 0.3538961039 0.42939481268
          0.4447592068 0.49090909091 0.42939481268 0.3538961039 0.16101694915 0
          0 0 0 0 0 0
          0 0.0028818443804 0.0075187969925 0 0 0.025
          0 0 0 0 0 0
          0.025 0 0 0.05023923445 0.068391866913 0.039344262295
          0.012820512821 0.011834319527 0.039344262295 0.068391866913 0.05023923445 0
          0 0.063694267516 0.10819672131 0.10465116279 0.036984352774 0.034120734908
          0.10465116279 0.10819672131 0.063694267516 0 0 0.070981210856
          0.15544871795 0.16500711238 0.12290502793 0.11282051282 0.16500711238 0.15544871795
          0.070981210856 0 0 0.082217973231 0.19378698225 0.25459317585
          0.33974358974 0.38981042654 0.25459317585 0.19378698225 0.082217973231 0
          0 0.093418259023 0.24918032787 0.35610465116 0.41963015647 0.46456692913
          0.35610465116 0.24918032787 0.093418259023 0 0 0.10765550239
          0.30868761553 0.39508196721 0.44391025641 0.48668639053 0.39508196721 0.30868761553
          0.10765550239 0 0 0.1625 0.35645933014 0.43099787686
          0.44467640919 0.4913957935 0.43099787686 0.35645933014 0.1625 0
          0 0.16165413534 0.35446685879 0.42966751918 0.44472361809 0.49078341014
          0.42966751918 0.35446685879 0.16165413534 0 0 0
          0 0 0 0 0 0
          0 0 0 0.02786377709 0 0
          0 0 0 0 0.02786377709 0
          0 0.054117647059 0.070397111913 0.040064102564 0.014173228346 0.013005780347
          0.040064102564 0.070397111913 0.054117647059 0 0 0.066805845511
          0.11057692308 0.106685633 0.037709497207 0.034615384615 0.106685633 0.11057692308
          0.066805845511 0 0 0.074226804124 0.16062992126 0.16759776536
          0.12362637363 0.11292346299 0.16759776536 0.16062992126 0.074226804124 0
          0 0.084427767355 0.19942196532 0.25769230769 0.33877038896 0.39145496536
          0.25769230769 0.19942196532 0.084427767355 0 0 0.093945720251
          0.25320512821 0.35988620199 0.41899441341 0.46666666667 0.35988620199 0.25320512821
          0.093945720251 0 0 0.10588235294 0.31407942238 0.39903846154
          0.44409448819 0.48988439306 0.39903846154 0.31407942238 0.10588235294 0
          0 0.16718266254 0.36705882353 0.43841336117 0.44536082474 0.49530956848
          0.43841336117 0.36705882353 0.16718266254 0 0 0.16728624535
          0.36543909348 0.43718592965 0.44554455446 0.49435665914 0.43718592965 0.36543909348
          0.16728624535 0 0 0 0 0
          0 0 0 0 0 0
          0 0.025280898876 0 0 0 0
          0 0 0.025280898876 0 0 0.049568965517
          0.066666666667 0.038461538462 0.013005780347 0.012016021362 0.038461538462 0.066666666667
          0.049568965517 0 0 0.06309751434 0.1050295858 0.10367454068
          0.037179487179 0.034360189573 0.10367454068 0.1050295858 0.06309751434 0
          0 0.071294559099 0.15462427746 0.1641025641 0.12296110414 0.11316397229
          0.1641025641 0.15462427746 0.071294559099 0 0 0.082616179002
          0.19359145527 0.25473933649 0.34064665127 0.38930481283 0.25473933649 0.19359145527
          0.082616179002 0 0 0.093690248566 0.24852071006 0.35564304462
          0.41923076923 0.46327014218 0.35564304462 0.24852071006 0.093690248566 0
          0 0.10775862069 0.30833333333 0.39349112426 0.4436416185 0.48598130841
          0.39349112426 0.30833333333 0.10775862069 0 0 0.16292134831
          0.35560344828 0.43021032505 0.44465290807 0.49053356282 0.43021032505 0.35560344828
          0.16292134831 0 0 0.16216216216 0.35324675325 0.42857142857
          0.44469525959 0.48962655602 0.42857142857 0.35324675325 0.16216216216 0
          0.0045248868778 0.0037593984962 0 0 0 0
          0 0 0 0 0 0.025
          0 0 0 0 0 0
          0.025 0 0 0.05023923445 0.068391866913 0.039344262295
          0.012820512821 0.011834319527 0.039344262295 0.068391866913 0.05023923445 0
          0 0.063694267516 0.10819672131 0.10465116279 0.036984352774 0.034120734908
          0.10465116279 0.10819672131 0.063694267516 0 0 0.070981210856
          0.15544871795 0.16500711238 0.12290502793 0.11282051282 0.16500711238 0.15544871795
          0.070981210856 0 0 0.082217973231 0.19378698225 0.25459317585
          0.33974358974 0.38981042654 0.25459317585 0.19378698225 0.082217973231 0
          0 0.093418259023 0.24918032787 0.35610465116 0.41963015647 0.46456692913
          0.35610465116 0.24918032787 0.093418259023 0 0 0.10765550239
          0.30868761553 0.39508196721 0.44391025641 0.48668639053 0.39508196721 0.30868761553
          0.10765550239 0 0 0.1625 0.35645933014 0.43099787686
          0.44467640919 0.4913957935 0.43099787686 0.35645933014 0.1625 0
          0 0.16165413534 0.35446685879 0.42966751918 0.44472361809 0.49078341014
          0.42966751918 0.35446685879 0.16165413534 0 0.025510204082 0.0084745762712
          0 0 0 0 0 0
          0 0 0.0042372881356 0.024647887324 0 0
          0 0 0 0 0.024647887324 0
          0 0.051212938005 0.06875 0.038817005545 0.012635379061 0.011666666667
          0.038817005545 0.06875 0.051212938005 0 0 0.064593301435
          0.10905730129 0.10491803279 0.036858974359 0.034023668639 0.10491803279 0.10905730129
          0.064593301435 0 0 0.070588235294 0.15523465704 0.16506410256
          0.12283464567 0.11271676301 0.16506410256 0.15523465704 0.070588235294 0
          0 0.081896551724 0.19333333333 0.25443786982 0.33959537572 0.38985313752
          0.25443786982 0.19333333333 0.081896551724 0 0 0.093301435407
          0.24768946396 0.35573770492 0.41987179487 0.46449704142 0.35573770492 0.24768946396
          0.093301435407 0 0 0.10781671159 0.30833333333 0.39556377079
          0.4440433213 0.48666666667 0.39556377079 0.30833333333 0.10781671159 0
          0 0.16197183099 0.35579514825 0.43062200957 0.44470588235 0.49137931034
          0.43062200957 0.35579514825 0.16197183099 0 0 0.16101694915
          0.3538961039 0.42939481268 0.4447592068 0.49090909091 0.42939481268 0.3538961039
          0.16101694915 0 0.040268456376 0.011173184358 0.0084745762712 0
          0 0 0 0 0 0.006711409396
          0.0055865921788 0.027906976744 0 0 0 0
          0 0 0.027906976744 0 0 0.056338028169
          0.072776280323 0.040669856459 0.014117647059 0.012931034483 0.040669856459 0.072776280323
          0.056338028169 0 0 0.06875 0.11483253589 0.10828025478
          0.0375782881 0.034416826004 0.10828025478 0.11483253589 0.06875 0
          0 0.074303405573 0.16235294118 0.16910229645 0.12371134021 0.11257035647
          0.16910229645 0.16235294118 0.074303405573 0 0 0.084269662921
          0.20043103448 0.25812619503 0.33771106942 0.39242685026 0.25812619503 0.20043103448
          0.084269662921 0 0 0.09375 0.25358851675 0.36093418259
          0.41962421712 0.46845124283 0.36093418259 0.25358851675 0.09375 0
          0 0.10563380282 0.3153638814 0.4019138756 0.44470588235 0.49137931034
          0.4019138756 0.3153638814 0.10563380282 0 0 0.16744186047
          0.36971830986 0.440625 0.44582043344 0.49719101124 0.440625 0.36971830986
          0.16744186047 0 0.006711409396 0.16759776536 0.3686440678 0.44360902256
          0.44609665428 0.49662162162 0.43984962406 0.3686440678 0.17318435754 0.006711409396
          0.024193548387 0.046979865772 0.020408163265 0.0045248868778 0 0
          0 0 0 0.008064516129 0.020134228188 0.033519553073
          0.0042372881356 0 0 0 0 0
          0.027932960894 0 0.0051020408163 0.055084745763 0.071428571429 0.040345821326
          0.014164305949 0.012987012987 0.040345821326 0.071428571429 0.055084745763 0
          0 0.067669172932 0.11239193084 0.1074168798 0.037688442211 0.034562211982
          0.1074168798 0.11239193084 0.067669172932 0 0 0.074349442379
          0.16147308782 0.16834170854 0.12376237624 0.11286681716 0.16834170854 0.16147308782
          0.074349442379 0 0 0.084459459459 0.2 0.25806451613
          0.33860045147 0.39211618257 0.25806451613 0.2 0.084459459459 0
          0 0.093984962406 0.25360230548 0.36061381074 0.41959798995 0.46774193548
          0.36061381074 0.25360230548 0.093984962406 0 0 0.10593220339
          0.31493506494 0.40057636888 0.4447592068 0.49090909091 0.40057636888 0.31493506494
          0.10593220339 0 0 0.16759776536 0.3686440678 0.43984962406
          0.44981412639 0.5 0.43984962406 0.3686440678 0.16759776536 0.006711409396
          0.016129032258 0.1744966443 0.36734693878 0.44343891403 0.45982142857 0.50406504065
          0.44343891403 0.36734693878 0.18120805369 0.024193548387
        </DataArray>
        <DataArray type="Float64" Name="Displacement" NumberOfComponents="3" format="ascii" RangeMin="0.69854927708" RangeMax="3.0442840288">
          -0.15389574792 2.6396818957 -0.24918203496 -0.23549313814 2.6572988766 -0.1322533816
          -0.32809245675 2.6586643657 -0.028609892716 -0.41617590505 2.6667676702 0.078165420763
          -0.50297593575 2.6762622132 0.18870552376 -0.58822043151 2.6857632279 0.29549166579
          -0.68073125806 2.6880630421 0.40177620532 -0.76963989055 2.6896574194 0.51663938891
          -0.88132190191 2.7006087478 0.61349143254 -0.96291560041 2.7017794595 0.72792134875
          -0.15578508619 2.4260579114 -0.23828768353 -0.24845560971 2.4290756327 -0.12772774671
          -0.33409760383 2.4372841747 -0.019497443395 -0.42138831988 2.4475196532 0.088659295771
          -0.51222620519 2.45301777 0.19637166129 -0.59917140043 2.46150918 0.30664789567
          -0.69035370224 2.4667077263 0.41657171866 -0.78059977723 2.4739395723 0.52396496968
          -0.87447628554 2.4776408325 0.63340072342 -0.95896092418 2.4856678879 0.73953163688
          -0.15988028483 2.2037409063 -0.2317628666 -0.25408414658 2.2082516394 -0.11915224682
          -0.34161127041 2.2148574959 -0.0089240922797 -0.43393740811 2.2225958393 0.10029645379
          -0.52260365644 2.2297956407 0.2090047242 -0.61058416071 2.2355328851 0.31715835546
          -0.70043489801 2.24285252 0.42495225144 -0.78780087023 2.2506603006 0.53218312346
          -0.87828837885 2.2578149598 0.64128567962 -0.96965964303 2.2707556712 0.74470417169
          -0.17294209003 1.9825176412 -0.21808144012 -0.26147841529 1.9885745954 -0.10974737618
          -0.34941488115 1.9959385099 -0.00096347768231 -0.4385672325 2.0033699889 0.10723658628
          -0.52807048265 2.0112540694 0.21714558692 -0.61834589559 2.016476978 0.32670774633
          -0.70784668439 2.0210050659 0.43328867723 -0.79479325856 2.0304811223 0.54284055101
          -0.88750887401 2.035470803 0.65084102992 -0.97682093038 2.0461758393 0.75811370633
          -0.17869576946 1.760018846 -0.21086768184 -0.2696362262 1.7662881161 -0.10102209587
          -0.35904363946 1.774282798 0.007986158116 -0.44887450902 1.7811637948 0.11734537123
          -0.53713641701 1.7888344049 0.22547807203 -0.62470070391 1.7920876122 0.33470133974
          -0.71438455597 1.800092842 0.44314485838 -0.80210409225 1.8073457253 0.55119145828
          -0.89119968709 1.8155372914 0.66036555212 -0.98233625892 1.8234297451 0.76935698992
          -0.18469098507 1.5372608264 -0.205600217 -0.27866368709 1.5447594643 -0.091336860395
          -0.36668475464 1.5523795048 0.016708565381 -0.45563275433 1.5589892922 0.1275669583
          -0.54491883153 1.5670296796 0.23661845133 -0.63121468859 1.5704429303 0.34208537369
          -0.72119039054 1.5780770887 0.45090101296 -0.81023288302 1.5866853012 0.56091743221
          -0.90118415201 1.5941447321 0.66847158037 -0.99131497013 1.6037730552 0.77793940768
          -0.19486282874 1.3165827318 -0.19405441096 -0.28643975905 1.3237054729 -0.082119745871
          -0.37557547136 1.3325264341 0.026529449345 -0.46525100194 1.3401175775 0.13547977947
          -0.55298750509 1.3442284345 0.24446497605 -0.63893438104 1.3479115434 0.35229904054
          -0.72892863384 1.3580435629 0.45892072775 -0.81808279949 1.3649876367 0.56890638516
          -0.90768213953 1.372538348 0.6781756386 -0.99421837749 1.380571892 0.789457736
          -0.20921724008 1.0965955003 -0.17458048963 -0.29343943561 1.1006662467 -0.073705156279
          -0.38481221997 1.110254539 0.036045995915 -0.47457704519 1.1182182283 0.14343506692
          -0.5654215279 1.1256071506 0.25206488053 -0.64808790833 1.1279406338 0.36739955193
          -0.73588203598 1.1364884993 0.47268103782 -0.82546441531 1.1437887472 0.58024933311
          -0.9139653898 1.1491283613 0.68842067182 -1.0071793686 1.1606082505 0.79558156813
          -0.21678068918 0.87439107951 -0.16813598896 -0.30250794906 0.8802842073 -0.064243371258
          -0.38969505061 0.88616505017 0.048276964526 -0.48299218541 0.89457578928 0.15257808708
          -0.57329146931 0.90153767838 0.25906910934 -0.64955533242 0.90033653799 0.37554986001
          -0.74214907497 0.912675058 0.4825287881 -0.83174021004 0.91992437784 0.58635764928
          -0.92134746452 0.92947353832 0.69921216342 -1.0110123722 0.93883360553 0.80774463847
          -0.2340384019 0.65155353005 -0.14588787804 -0.31280931414 0.65947618551 -0.050880299177
          -0.39843580383 0.66746045111 0.060118822779 -0.4932073295 0.67291814747 0.1621771441
          -0.58396375126 0.69873585089 0.27677069469 -0.65688524892 0.67912400945 0.38702581274
          -0.74992085335 0.69082074471 0.49075843807 -0.83705942642 0.69917310596 0.59865441571
          -0.93024615654 0.70656614096 0.70894524025 -1.0232422467 0.7276396759 0.8231259205
          -0.037192849891 2.6351223876 -0.37664254388 -0.12802948943 2.6410558463 -0.27016724347
          -0.21603956853 2.6514912324 -0.16122579654 -0.30554098323 2.6569307848 -0.053008870042
          -0.39424493385 2.6639096892 0.054958156828 -0.4861797726 2.6696012935 0.16491247166
          -0.57542286942 2.6780984166 0.27482146272 -0.6640182458 2.6837313524 0.38445532434
          -0.75285320755 2.6953948077 0.48850892848 -0.83690902409 2.7010950414 0.61011111993
          -0.044589856199 2.4119442829 -0.37163767701 -0.13729685649 2.4223218024 -0.25945184395
          -0.22678744869 2.4287256603 -0.15120096251 -0.31558014728 2.4345485166 -0.041855466998
          -0.40407644759 2.4421556355 0.065748394486 -0.49416657533 2.4495178362 0.17535009364
          -0.58161835405 2.4547532414 0.28099041731 -0.67199624918 2.4639555028 0.39173698851
          -0.76159379304 2.4723276359 0.50129153762 -0.84598794984 2.4761831751 0.6130167179
          -0.056608359386 2.1927706584 -0.35801034637 -0.14477754965 2.1993501114 -0.25009671872
          -0.2332662013 2.2070062489 -0.14196654424 -0.32296036108 2.2145409329 -0.033812896811
          -0.41216970516 2.2210713513 0.074362578985 -0.50060041847 2.2275429683 0.18409407632
          -0.59032828704 2.2350227756 0.29255556558 -0.6780651794 2.2420505833 0.40051597017
          -0.76964967054 2.2498032762 0.50867055373 -0.86180532806 2.2588295204 0.6160404742
          -0.062600848677 1.971168761 -0.35121337381 -0.15309198601 1.9784196218 -0.24112037901
          -0.24210319489 1.9867728796 -0.13295475449 -0.33030561409 1.9925897722 -0.024368949007
          -0.41933519562 1.9994095777 0.084608883913 -0.50793712849 2.0055962191 0.19305391913
          -0.59809844577 2.0127726694 0.30198162413 -0.68677118794 2.0212156195 0.40978777444
          -0.77729684325 2.0287496944 0.51769250434 -0.86688065587 2.0362684709 0.62659590347
          -0.069305075453 1.751804592 -0.34314597819 -0.16065552471 1.7561288097 -0.23271597865
          -0.24942429271 1.7637593912 -0.12401542366 -0.33904665381 1.7719023625 -0.015753497141
          -0.42725019396 1.7782263705 0.093077449226 -0.5157381634 1.7832018534 0.20180190662
          -0.60531257772 1.7909821581 0.3106983073 -0.69347567297 1.800687174 0.41857197052
          -0.78315026054 1.8071682435 0.5278425681 -0.87247801301 1.8160439019 0.63594624056
          -0.077798906539 1.5276370101 -0.33392174071 -0.16866681338 1.5340331529 -0.22425158689
          -0.25800644549 1.5427859946 -0.11523474129 -0.34735487763 1.5498292991 -0.0062665966622
          -0.43558880338 1.5569146418 0.10298178151 -0.52200575636 1.5616100631 0.21069370594
          -0.61286913911 1.5696033698 0.32008704045 -0.70197943815 1.5777951607 0.42832128314
          -0.79053317236 1.5849664809 0.53719326103 -0.87856698191 1.5941336684 0.64701908181
          -0.089044945146 1.3058289705 -0.32291603044 -0.17638463797 1.3131563045 -0.2146248687
          -0.26564372054 1.321596737 -0.10539256401 -0.35601954062 1.3294375952 0.0011612479498
          -0.4434035728 1.3355379106 0.11227878594 -0.52886920019 1.340003317 0.2208707934
          -0.61874847237 1.3488858728 0.33050467023 -0.70884311945 1.3566685433 0.4366463255
          -0.79727030451 1.3636093665 0.54690682057 -0.88937598009 1.3713175162 0.65389873396
          -0.096654934676 1.084534883 -0.31198542225 -0.18580750324 1.0917706595 -0.20544307383
          -0.27561934501 1.0989630747 -0.096949545699 -0.36657327205 1.1065048339 0.010951927973
          -0.45432203948 1.1161087403 0.12126463719 -0.53768962668 1.1195103782 0.23178129407
          -0.62705857152 1.1257589006 0.34062408896 -0.71678685691 1.1346352061 0.44749827479
          -0.80631721264 1.1424559037 0.55636341695 -0.89618618778 1.1505856438 0.66320133578
          -0.10361510017 0.86319443329 -0.30518038151 -0.19317425611 0.87077749524 -0.19641726569
          -0.28364391946 0.87903736047 -0.08709402413 -0.37204706829 0.88528855189 0.020830066496
          -0.46257728166 0.89379205733 0.12989000839 -0.54433804668 0.89575203359 0.24158115721
          -0.63296580475 0.90378839673 0.35035748337 -0.72322349187 0.91412842435 0.45840393468
          -0.81214793817 0.92201459328 0.56798427731 -0.90219788407 0.93136209815 0.67605015347
          -0.11506568389 0.64696110545 -0.29832832287 -0.20082383175 0.65103233825 -0.18600392826
          -0.29161728861 0.65802713345 -0.073881425717 -0.38051158969 0.66780553533 0.031951337011
          -0.47105441401 0.67299863353 0.14211225986 -0.55106494383 0.67199467905 0.25847200847
          -0.64046191326 0.68371515638 0.35979282914 -0.73104955915 0.6912048509 0.46669703013
          -0.81952892597 0.69914356759 0.57543765005 -0.9076640701 0.71441761952 0.68963049204
          0.06832421557 2.6271265884 -0.50650193618 -0.022208071778 2.6319719551 -0.40253867342
          -0.10781793124 2.641006685 -0.29196907324 -0.20016113339 2.6482363425 -0.18498244607
          -0.2882288172 2.6551607538 -0.075599846715 -0.37740682604 2.6625618265 0.034367116458
          -0.46677294915 2.6687276303 0.14212959628 -0.5565563798 2.674639447 0.24967572181
          -0.64128521599 2.6844675599 0.35864973848 -0.73240119498 2.6945403067 0.45762981454
          0.061579700926 2.4068375428 -0.49994925294 -0.029709446821 2.4111153598 -0.3921023376
          -0.11784382257 2.4178074415 -0.2835994741 -0.2066015286 2.4252165228 -0.17550069888
          -0.29548008794 2.433470453 -0.066754621481 -0.38496638683 2.4405910349 0.041931390694
          -0.47354510923 2.4467659245 0.151366792 -0.56357090393 2.4539202817 0.2608401587
          -0.65176127988 2.4622220412 0.36819986518 -0.74213863451 2.4750174194 0.47304899875
          0.054453889821 2.182007815 -0.49300481528 -0.036852113186 2.1895451168 -0.38211326138
          -0.12537312453 2.1968765832 -0.2745584793 -0.21384109371 2.2041542428 -0.16568654373
          -0.30272666603 2.21127324 -0.057287053698 -0.39195633308 2.2179934257 0.051511029447
          -0.48148450242 2.2254684061 0.15937013989 -0.57105431126 2.2335363492 0.2679429366
          -0.65961045248 2.241933747 0.37691457502 -0.74877937703 2.2503869205 0.48537018459
          0.047830351493 1.9599640185 -0.48185862964 -0.043838519265 1.9681499097 -0.37378692719
          -0.13288192621 1.9753887779 -0.265978541 -0.22206036705 1.982813236 -0.15700690508
          -0.31077608857 1.9895796793 -0.04783120586 -0.39974459186 1.9965748691 0.060662748365
          -0.48913165343 2.0038430271 0.16912000915 -0.57774462001 2.0119952998 0.27735968133
          -0.66605066442 2.018220438 0.38505934293 -0.75442872764 2.026457073 0.49344553457
          0.036717099846 1.7389787665 -0.47319103551 -0.05295680824 1.7468274095 -0.36528805564
          -0.14156416002 1.7538878092 -0.25618487102 -0.23025506489 1.7608587709 -0.14628391452
          -0.31907804727 1.7687368771 -0.039125408251 -0.4071035315 1.7741101201 0.069489951558
          -0.49700182132 1.7811116163 0.1767142553 -0.58509245667 1.7902564821 0.28711061113
          -0.67546491011 1.798134791 0.39617214987 -0.76482852867 1.8058077027 0.50378681029
          0.029613425359 1.518377821 -0.46514210823 -0.060745324833 1.5250322285 -0.35552810561
          -0.14920694716 1.5328457974 -0.24673872068 -0.23865623282 1.5400716805 -0.13959210975
          -0.32837155069 1.5472946759 -0.031030888618 -0.41485538516 1.5527110837 0.079857191396
          -0.50384781084 1.5609358583 0.18739668182 -0.5921915151 1.5683771521 0.29545252198
          -0.6821237526 1.5767864252 0.40449859136 -0.77170289951 1.5846510493 0.51330178935
          0.019612625439 1.2972057248 -0.45506004469 -0.068711229189 1.3034144582 -0.34815344463
          -0.15750958942 1.3104691729 -0.23757023457 -0.2463556503 1.3178039969 -0.12844492632
          -0.33575623332 1.3259146635 -0.021128734108 -0.42166330462 1.3304211339 0.0886826872
          -0.51044793731 1.3384533576 0.19834586019 -0.59962735269 1.3468699225 0.30582833213
          -0.68915206667 1.3548234537 0.41383297618 -0.77891408386 1.3636202274 0.5229150682
          0.011365870846 1.0738650142 -0.44536931853 -0.077979730711 1.0823866109 -0.33751391657
          -0.16397915491 1.0914892344 -0.22955001729 -0.25424957097 1.097258472 -0.11954450899
          -0.3426118001 1.1044659445 -0.010340445458 -0.42933296979 1.1086696596 0.098279526522
          -0.51721571765 1.1171270876 0.20612411317 -0.60532466233 1.1262340819 0.31521635861
          -0.69801998032 1.1335386324 0.42495092771 -0.78618527546 1.141897964 0.53288097953
          0.0041694088949 0.85126042983 -0.43540441337 -0.084396150109 0.85971229033 -0.32780508753
          -0.17469999231 0.86816031879 -0.22051613835 -0.26388529005 0.87703211126 -0.11040892251
          -0.35382744249 0.88622358233 -0.00052858603076 -0.43663473622 0.88840388694 0.10797794408
          -0.52508508534 0.8951730085 0.21756744434 -0.61351718811 0.9029866801 0.32684265451
          -0.70314555223 0.91178975673 0.43440575004 -0.79219524171 0.92059472393 0.5434479096
          -0.005236268867 0.63242988381 -0.42718872323 -0.092249565976 0.63776755905 -0.31825782925
          -0.18202004283 0.64743227304 -0.20826818663 -0.27196523386 0.65706352893 -0.09778773981
          -0.359434737 0.66148357933 0.0059382896549 -0.44084885145 0.66407874125 0.12034248678
          -0.53279994326 0.67506670066 0.22424607879 -0.62086301478 0.68190677954 0.33678965674
          -0.70991064828 0.68950885947 0.44531594346 -0.79903281221 0.7006822064 0.55466301055
          0.18151393941 2.6176074819 -0.64771217424 0.089163227909 2.623970881 -0.53349594583
          0.0006472922926 2.6298174337 -0.42441363601 -0.090412707989 2.6376526844 -0.31715285247
          -0.17759904257 2.6446534812 -0.20894453608 -0.26788292622 2.6537478092 -0.10017472354
          -0.35759760879 2.6599580969 0.0089960893024 -0.44590472091 2.6652913772 0.11729795582
          -0.53396156853 2.6772194419 0.22266643458 -0.62882748621 2.6859620885 0.33329168023
          0.16884847485 2.3948061009 -0.63470212716 0.080437474766 2.4023032403 -0.52437977466
          -0.0083530088291 2.4090126031 -0.41685248204 -0.097308391358 2.4160788402 -0.30848421837
          -0.1870681362 2.4233038214 -0.1989747936 -0.27614615689 2.4308721489 -0.090254734923
          -0.36443417412 2.4382431005 0.01904710034 -0.45424981985 2.4462294373 0.12712817028
          -0.54250927407 2.4546177344 0.23583007438 -0.63241160735 2.4600886874 0.34411761909
          0.16233311519 2.1711539984 -0.62119572203 0.07221717194 2.1795050629 -0.51725719813
          -0.015321838577 2.1878220993 -0.40731146017 -0.10527368569 2.1946082092 -0.29854888543
          -0.1942881297 2.2018940304 -0.18990972925 -0.28333052621 2.2091348597 -0.081537791314
          -0.37201818833 2.2171086804 0.027309660937 -0.46224634721 2.2241224452 0.13523818892
          -0.55056737291 2.2316204789 0.2448950391 -0.64050705684 2.2385386007 0.35080019564
          0.15367071569 1.9514349808 -0.61524902188 0.065183910021 1.9589540609 -0.50697580343
          -0.024349775434 1.9657178871 -0.39789542106 -0.11324408211 1.9730369958 -0.28942294099
          -0.20205119404 1.9802820026 -0.18066647486 -0.29096138702 1.9875055346 -0.072068943244
          -0.38010817396 1.9949873492 0.036421241278 -0.46971470946 2.0026728025 0.14381949697
          -0.55743093483 2.0111250831 0.25392519948 -0.64706683108 2.0190385532 0.36174928718
          0.14305518375 1.7304881791 -0.60676421446 0.056384507141 1.736271866 -0.49768019479
          -0.032365775477 1.7442802326 -0.38776298551 -0.12118565418 1.7506775028 -0.27877635609
          -0.21010402627 1.7585948209 -0.17140946739 -0.29874201703 1.7654482872 -0.062846889609
          -0.38773015337 1.772984677 0.045000364109 -0.47659632215 1.780695874 0.15349782144
          -0.56502972587 1.7899382165 0.2636297875 -0.65633287359 1.7984354505 0.37341484489
          0.13765238478 1.5078264776 -0.59646842372 0.048488723556 1.5151610858 -0.48828143091
          -0.040760656332 1.5228186202 -0.37949022999 -0.12970891059 1.5302024884 -0.27094874717
          -0.21884277301 1.53756265 -0.16261967035 -0.30588364479 1.544058144 -0.05353581086
          -0.39426975997 1.5518073445 0.055380489461 -0.48388976227 1.5599447934 0.16375521784
          -0.57362242392 1.5681593815 0.27276410974 -0.66199609714 1.5758368493 0.38118871466
          0.12930454841 1.2873529556 -0.58771295841 0.040118708453 1.2934513911 -0.48000360021