<?xml version="1.0"?>
<VTKFile type="UnstructuredGrid" version="0.1" byte_order="LittleEndian" compressor="vtkZLibDataCompressor">
  <UnstructuredGrid>
    <FieldData>
      <DataArray type="Float64" Name="TIME" NumberOfTuples="1" format="ascii" RangeMin="1.1772042059" RangeMax="1.1772042059">
        1.1772042059
      </DataArray>
    </FieldData>
    <Piece NumberOfPoints="1000" NumberOfCells="0">
      <PointData>
        <DataArray type="Float64" Name="Damage" format="ascii" RangeMin="0" RangeMax="0.5081300813">
          0.016129032258 0.006711409396 0 0 0 0
          0 0.010204081633 0.040268456376 0.12096774194 0 0.027932960894
          0 0 0 0 0 0
          0.033519553073 0.006711409396 0 0.055084745763 0.071428571429 0.040345821326
          0.014164305949 0.012987012987 0.040345821326 0.071428571429 0.055084745763 0
          0 0.067669172932 0.11239193084 0.1074168798 0.037688442211 0.034562211982
          0.1074168798 0.11239193084 0.067669172932 0 0 0.074349442379
          0.16147308782 0.16834170854 0.12376237624 0.11286681716 0.16834170854 0.16147308782
          0.074349442379 0 0 0.084459459459 0.2 0.25806451613
          0.33860045147 0.39211618257 0.25806451613 0.2 0.084459459459 0
          0 0.093984962406 0.25360230548 0.36061381074 0.41959798995 0.46774193548
          0.36061381074 0.25360230548 0.093984962406 0 0 0.10593220339
          0.31493506494 0.40057636888 0.4447592068 0.49090909091 0.40057636888 0.31493506494
          0.10593220339 0 0 0.17318435754 0.3686440678 0.43984962406
          0.44981412639 0.5 0.43984962406 0.3686440678 0.17318435754 0.006711409396
          0.016129032258 0.18791946309 0.36734693878 0.44343891403 0.46428571429 0.5081300813
          0.44343891403 0.36734693878 0.18791946309 0.016129032258 0.006711409396 0
          0 0 0 0 0.0037593984962 0.012711864407
          0.016759776536 0.046979865772 0 0.027906976744 0 0
          0 0 0 0 0.032558139535 0
          0 0.056338028169 0.072776280323 0.040669856459 0.014117647059 0.012931034483
          0.040669856459 0.072776280323 0.056338028169 0 0 0.06875
          0.11483253589 0.10828025478 0.0375782881 0.034416826004 0.10828025478 0.11483253589
          0.06875 0 0 0.074303405573 0.16235294118 0.16910229645
          0.12371134021 0.11257035647 0.16910229645 0.16235294118 0.074303405573 0
          0 0.084269662921 0.20043103448 0.25812619503 0.33771106942 0.39242685026
          0.25812619503 0.20043103448 0.084269662921 0 0 0.09375
          0.25358851675 0.36093418259 0.41962421712 0.46845124283 0.36093418259 0.25358851675
          0.09375 0 0 0.10563380282 0.3153638814 0.4019138756
          0.44470588235 0.49137931034 0.4019138756 0.3153638814 0.10563380282 0
          0 0.16744186047 0.36971830986 0.440625 0.44582043344 0.49719101124
          0.440625 0.36971830986 0.16744186047 0 0.013422818792 0.17877094972
          0.3686440678 0.44360902256 0.44981412639 0.5 0.43984962406 0.3686440678
          0.17877094972 0.006711409396 0 0 0 0
          0 0 0.0028818443804 0.0064935064935 0.012711864407 0.020408163265
          0 0.024647887324 0 0 0 0
          0 0 0.028169014085 0 0 0.051212938005
          0.06875 0.038817005545 0.012635379061 0.011666666667 0.038817005545 0.06875
          0.051212938005 0 0 0.064593301435 0.10905730129 0.10491803279
          0.036858974359 0.034023668639 0.10491803279 0.10905730129 0.064593301435 0
          0 0.070588235294 0.15523465704 0.16506410256 0.12283464567 0.11271676301
          0.16506410256 0.15523465704 0.070588235294 0 0 0.081896551724
          0.19333333333 0.25443786982 0.33959537572 0.38985313752 0.25443786982 0.19333333333
          0.081896551724 0 0 0.093301435407 0.24768946396 0.35573770492
          0.41987179487 0.46449704142 0.35573770492 0.24768946396 0.093301435407 0
          0 0.10781671159 0.30833333333 0.39556377079 0.4440433213 0.48666666667
          0.39556377079 0.30833333333 0.10781671159 0 0 0.16197183099
          0.35579514825 0.43062200957 0.44470588235 0.49137931034 0.43062200957 0.35579514825
          0.16197183099 0 0 0.16101694915 0.3538961039 0.42939481268
          0.4447592068 0.49090909091 0.42939481268 0.3538961039 0.16101694915 0
          0 0 0 0 0 0
          0 0.0028818443804 0.0075187969925 0 0 0.025
          0 0 0 0 0 0
          0.025 0 0 0.05023923445 0.068391866913 0.039344262295
          0.012820512821 0.011834319527 0.039344262295 0.068391866913 0.05023923445 0
          0 0.063694267516 0.10819672131 0.10465116279 0.036984352774 0.034120734908
          0.10465116279 0.10819672131 0.063694267516 0 0 0.070981210856
          0.15544871795 0.16500711238 0.12290502793 0.11282051282 0.16500711238 0.15544871795
          0.070981210856 0 0 0.082217973231 0.19378698225 0.25459317585
          0.33974358974 0.38981042654 0.25459317585 0.19378698225 0.082217973231 0
          0 0.093418259023 0.24918032787 0.35610465116 0.41963015647 0.46456692913
          0.35610465116 0.24918032787 0.093418259023 0 0 0.10765550239
          0.30868761553 0.39508196721 0.44391025641 0.48668639053 0.39508196721 0.30868761553
          0.10765550239 0 0 0.1625 0.35645933014 0.43099787686
          0.44467640919 0.4913957935 0.43099787686 0.35645933014 0.1625 0
          0 0.16165413534 0.35446685879 0.42966751918 0.44472361809 0.49078341014
          0.42966751918 0.35446685879 0.16165413534 0 0 0
          0 0 0 0 0 0
          0 0 0 0.02786377709 0 0
          0 0 0 0 0.02786377709 0
          0 0.054117647059 0.070397111913 0.040064102564 0.014173228346 0.013005780347
          0.040064102564 0.070397111913 0.054117647059 0 0 0.066805845511
          0.11057692308 0.106685633 0.037709497207 0.034615384615 0.106685633 0.11057692308
          0.066805845511 0 0 0.074226804124 0.16062992126 0.16759776536
          0.12362637363 0.11292346299 0.16759776536 0.16062992126 0.074226804124 0
          0 0.084427767355 0.19942196532 0.25769230769 0.33877038896 0.39145496536
          0.25769230769 0.19942196532 0.084427767355 0 0 0.093945720251
          0.25320512821 0.35988620199 0.41899441341 0.46666666667 0.35988620199 0.25320512821
          0.093945720251 0 0 0.10588235294 0.31407942238 0.39903846154
          0.44409448819 0.48988439306 0.39903846154 0.31407942238 0.10588235294 0
          0 0.16718266254 0.36705882353 0.43841336117 0.44536082474 0.49530956848
          0.43841336117 0.36705882353 0.16718266254 0 0 0.16728624535
          0.36543909348 0.43718592965 0.44554455446 0.49435665914 0.43718592965 0.36543909348
          0.16728624535 0 0 0 0 0
          0 0 0 0 0 0
          0 0.025280898876 0 0 0 0
          0 0 0.025280898876 0 0 0.049568965517
          0.066666666667 0.038461538462 0.013005780347 0.012016021362 0.038461538462 0.066666666667
          0.049568965517 0 0 0.06309751434 0.1050295858 0.10367454068
          0.037179487179 0.034360189573 0.10367454068 0.1050295858 0.06309751434 0
          0 0.071294559099 0.15462427746 0.1641025641 0.12296110414 0.11316397229
          0.1641025641 0.15462427746 0.071294559099 0 0 0.082616179002
          0.19359145527 0.25473933649 0.34064665127 0.38930481283 0.25473933649 0.19359145527
          0.082616179002 0 0 0.093690248566 0.24852071006 0.35564304462
          0.41923076923 0.46327014218 0.35564304462 0.24852071006 0.093690248566 0
          0 0.10775862069 0.30833333333 0.39349112426 0.4436416185 0.48598130841
          0.39349112426 0.30833333333 0.10775862069 0 0 0.16292134831
          0.35560344828 0.43021032505 0.44465290807 0.49053356282 0.43021032505 0.35560344828
          0.16292134831 0 0 0.16216216216 0.35324675325 0.42857142857
          0.44469525959 0.48962655602 0.42857142857 0.35324675325 0.16216216216 0
          0.0045248868778 0.0037593984962 0 0 0 0
          0 0 0 0 0 0.025
          0 0 0 0 0 0
          0.025 0 0 0.05023923445 0.068391866913 0.039344262295
          0.012820512821 0.011834319527 0.039344262295 0.068391866913 0.05023923445 0
          0 0.063694267516 0.10819672131 0.10465116279 0.036984352774 0.034120734908
          0.10465116279 0.10819672131 0.063694267516 0 0 0.070981210856
          0.15544871795 0.16500711238 0.12290502793 0.11282051282 0.16500711238 0.15544871795
          0.070981210856 0 0 0.082217973231 0.19378698225 0.25459317585
          0.33974358974 0.38981042654 0.25459317585 0.19378698225 0.082217973231 0
          0 0.093418259023 0.24918032787 0.35610465116 0.41963015647 0.46456692913
          0.35610465116 0.24918032787 0.093418259023 0 0 0.10765550239
          0.30868761553 0.39508196721 0.44391025641 0.48668639053 0.39508196721 0.30868761553
          0.10765550239 0 0 0.1625 0.35645933014 0.43099787686
          0.44467640919 0.4913957935 0.43099787686 0.35645933014 0.1625 0
          0 0.16165413534 0.35446685879 0.42966751918 0.44472361809 0.49078341014
          0.42966751918 0.35446685879 0.16165413534 0 0.025510204082 0.0084745762712
          0 0 0 0 0 0
          0 0 0.0042372881356 0.024647887324 0 0
          0 0 0 0 0.024647887324 0
          0 0.051212938005 0.06875 0.038817005545 0.012635379061 0.011666666667
          0.038817005545 0.06875 0.051212938005 0 0 0.064593301435
          0.10905730129 0.10491803279 0.036858974359 0.034023668639 0.10491803279 0.10905730129
          0.064593301435 0 0 0.070588235294 0.15523465704 0.16506410256
          0.12283464567 0.11271676301 0.16506410256 0.15523465704 0.070588235294 0
          0 0.081896551724 0.19333333333 0.25443786982 0.33959537572 0.38985313752
          0.25443786982 0.19333333333 0.081896551724 0 0 0.093301435407
          0.24768946396 0.35573770492 0.41987179487 0.46449704142 0.35573770492 0.24768946396
          0.093301435407 0 0 0.10781671159 0.30833333333 0.39556377079
          0.4440433213 0.48666666667 0.39556377079 0.30833333333 0.10781671159 0
          0 0.16197183099 0.35579514825 0.43062200957 0.44470588235 0.49137931034
          0.43062200957 0.35579514825 0.16197183099 0 0 0.16101694915
          0.3538961039 0.42939481268 0.4447592068 0.49090909091 0.42939481268 0.3538961039
          0.16101694915 0 0.03355704698 0.011173184358 0.0084745762712 0
          0 0 0 0 0 0.006711409396
          0.0055865921788 0.027906976744 0 0 0 0
          0 0 0.027906976744 0 0 0.056338028169
          0.072776280323 0.040669856459 0.014117647059 0.012931034483 0.040669856459 0.072776280323
          0.056338028169 0 0 0.06875 0.11483253589 0.10828025478
          0.0375782881 0.034416826004 0.10828025478 0.11483253589 0.06875 0
          0 0.074303405573 0.16235294118 0.16910229645 0.12371134021 0.11257035647
          0.16910229645 0.16235294118 0.074303405573 0 0 0.084269662921
          0.20043103448 0.25812619503 0.33771106942 0.39242685026 0.25812619503 0.20043103448
          0.084269662921 0 0 0.09375 0.25358851675 0.36093418259
          0.41962421712 0.46845124283 0.36093418259 0.25358851675 0.09375 0
          0 0.10563380282 0.3153638814 0.4019138756 0.44470588235 0.49137931034
          0.4019138756 0.3153638814 0.10563380282 0 0 0.16744186047
          0.36971830986 0.440625 0.44582043344 0.49719101124 0.440625 0.36971830986
          0.16744186047 0 0.006711409396 0.16759776536 0.3686440678 0.44360902256
          0.44609665428 0.49662162162 0.43984962406 0.3686440678 0.17318435754 0.006711409396
          0.024193548387 0.03355704698 0.015306122449 0.0045248868778 0 0
          0 0 0 0.008064516129 0.006711409396 0.033519553073
          0 0 0 0 0 0
          0.027932960894 0 0 0.055084745763 0.071428571429 0.040345821326
          0.014164305949 0.012987012987 0.040345821326 0.071428571429 0.055084745763 0
          0 0.067669172932 0.11239193084 0.1074168798 0.037688442211 0.034562211982
          0.1074168798 0.11239193084 0.067669172932 0 0 0.074349442379
          0.16147308782 0.16834170854 0.12376237624 0.11286681716 0.16834170854 0.16147308782
          0.074349442379 0 0 0.084459459459 0.2 0.25806451613
          0.33860045147 0.39211618257 0.25806451613 0.2 0.084459459459 0
          0 0.093984962406 0.25360230548 0.36061381074 0.41959798995 0.46774193548
          0.36061381074 0.25360230548 0.093984962406 0 0 0.10593220339
          0.31493506494 0.40057636888 0.4447592068 0.49090909091 0.40057636888 0.31493506494
          0.10593220339 0 0 0.16759776536 0.3686440678 0.43984962406
          0.44981412639 0.5 0.43984962406 0.3686440678 0.16759776536 0.006711409396
          0.016129032258 0.1744966443 0.36734693878 0.44343891403 0.45982142857 0.50406504065
          0.44343891403 0.36734693878 0.18120805369 0.024193548387
        </DataArray>
        <DataArray type="Float64" Name="Displacement" NumberOfComponents="3" format="ascii" RangeMin="0.87917862016" RangeMax="3.2698303248">
          -0.17288206905 2.8540087645 -0.17832987768 -0.2657230169 2.8475189211 -0.077475686658
          -0.35910641173 2.8448363963 0.031316141822 -0.44536460927 2.8472240727 0.13545574639
          -0.5338666404 2.8488299844 0.24525801105 -0.62792325614 2.8425960782 0.35676941078
          -0.71420868967 2.8449425244 0.45877984222 -0.81280280975 2.8468956917 0.57351944989
          -0.90085499965 2.8303066114 0.67587774768 -0.99652812089 2.8359782028 0.78789770508
          -0.17767736498 2.6223035443 -0.18622964409 -0.26649819196 2.6237812423 -0.082049381377
          -0.35722723766 2.6237181348 0.025835864294 -0.44947977673 2.6203513888 0.13637268162
          -0.53680313395 2.6222570049 0.24622686267 -0.62549974025 2.6234250896 0.35474971909
          -0.71511503378 2.6218635269 0.46595854865 -0.80354533431 2.6216782562 0.57275404611
          -0.88776607635 2.6268110213 0.68317554345 -0.9826297749 2.6254954033 0.79393300603
          -0.18148093998 2.4008904166 -0.18895308144 -0.27137214128 2.3996020028 -0.078666777545
          -0.35786452604 2.4006946868 0.028160434525 -0.44775292961 2.3997351347 0.13750093002
          -0.53654382524 2.4005108504 0.24558760611 -0.62565573973 2.3997365679 0.35439738784
          -0.71596780535 2.4012028488 0.46321353695 -0.80551322378 2.3999420462 0.57192779146
          -0.89744379134 2.3998383481 0.68115355814 -0.98998303232 2.3994380435 0.78904425839
          -0.18248592572 2.1794280559 -0.18523311198 -0.26843802604 2.1783804602 -0.080260179466
          -0.35780990154 2.1788108486 0.027949195804 -0.44765634108 2.1776933608 0.13805800404
          -0.53722474831 2.177708413 0.24474241994 -0.62789405536 2.1791834895 0.35495545368
          -0.71573676084 2.1786258557 0.46341044429 -0.80375830958 2.1788662393 0.57459589103
          -0.8941142262 2.1794401055 0.68131207716 -0.98643479387 2.1791546427 0.79004185876
          -0.18046578694 1.9553605541 -0.18806572611 -0.26943132194 1.9557615176 -0.080165927569
          -0.35863969895 1.9562753472 0.028131269585 -0.44820842255 1.9545621492 0.13630536859
          -0.53655623516 1.9540639661 0.24571298944 -0.62728766796 1.9529677453 0.35406976755
          -0.71637181627 1.9554589332 0.46418837519 -0.80469175363 1.9564441893 0.57393582976
          -0.89610088572 1.957715284 0.68189560052 -0.9841772927 1.9559653372 0.79176333481
          -0.18328701664 1.7343648777 -0.18487592802 -0.26846860736 1.7340074757 -0.082461687138
          -0.35927430194 1.7332700593 0.027618080116 -0.44847099289 1.7326223638 0.13571174287
          -0.53631825883 1.7322245474 0.24533544743 -0.62814459468 1.7322993543 0.35682700183
          -0.71709817996 1.7332239914 0.46447386782 -0.80648213586 1.7337635587 0.57435124273
          -0.89473600827 1.7357233702 0.68436113787 -0.98340840048 1.7365036002 0.79306971981
          -0.18471962325 1.5114249325 -0.18314235322 -0.26972343841 1.5096979969 -0.080605005621
          -0.35851114237 1.5105824497 0.02892146551 -0.44757393658 1.5098103522 0.13855722657
          -0.53653245667 1.5097321515 0.24466953963 -0.62855782034 1.511709589 0.35745001098
          -0.71926913981 1.510981784 0.46389324985 -0.80700977081 1.5115680482 0.57327584914
          -0.89722670218 1.5117970734 0.68287913079 -0.9915653404 1.5124605918 0.7874507504
          -0.18623775114 1.2894794684 -0.18259794027 -0.26959052637 1.2877054465 -0.081077901043
          -0.36065661035 1.2892808522 0.027896849387 -0.44724654162 1.2887088418 0.13776309517
          -0.53479984581 1.2882104566 0.24761860481 -0.62671882505 1.2894244475 0.35238250006
          -0.71868945641 1.2911920171 0.46688810529 -0.80890520702 1.2912675855 0.57511854414
          -0.89567004214 1.2896924199 0.68481422226 -0.99072589032 1.2904999785 0.78964027915
          -0.1810896834 1.0682302264 -0.19262458076 -0.26690143289 1.0639186509 -0.083971879178
          -0.3581252379 1.0660701986 0.031007677035 -0.44564282033 1.0649969133 0.13360810634
          -0.53707298811 1.0636725066 0.24577586685 -0.62805266466 1.0655116737 0.35801823614
          -0.71694024177 1.0666333691 0.47034834525 -0.80836853096 1.0681777184 0.57283255553
          -0.89287120897 1.0672338156 0.68548756223 -0.98385914077 1.0659793536 0.79529547281
          -0.17151931423 0.84063385656 -0.19546385747 -0.27691369918 0.85226557377 -0.080173361726
          -0.36209297891 0.84650970443 0.024081886251 -0.44828188493 0.84328252045 0.13973873441
          -0.52267785053 0.83197198107 0.24551624074 -0.62574710884 0.84303532398 0.35376883967
          -0.72068102807 0.84335996168 0.4624611893 -0.81055133131 0.84685808089 0.57727455595
          -0.90038972357 0.85290577509 0.69199871553 -0.97546967648 0.84297687873 0.79720828222
          -0.075935930132 2.8411783754 -0.32144367841 -0.16224619618 2.843967083 -0.21222159845
          -0.24827790799 2.8456378801 -0.10465743098 -0.33836988923 2.843755523 0.0044279519395
          -0.43048593747 2.842239919 0.11528404113 -0.5197660601 2.8428737679 0.22292851774
          -0.60575134342 2.8436539479 0.33404209261 -0.69515391211 2.8438318827 0.44446279654
          -0.78531216584 2.8414316535 0.55079707704 -0.87411762009 2.8325430689 0.66117258557
          -0.0723867681 2.6219488123 -0.32216566213 -0.16095182516 2.6214425413 -0.21460741775
          -0.25053931794 2.6215519944 -0.10366173438 -0.3394301938 2.6225193208 0.0033332454306
          -0.42712166296 2.6222379334 0.11303861425 -0.51725744611 2.6214219903 0.22173686976
          -0.60760714752 2.6244147416 0.33309923739 -0.6969326393 2.6216718898 0.43926289549
          -0.78630545358 2.6206452448 0.54839360975 -0.87729265355 2.6237666353 0.65506611457
          -0.071396978447 2.3992955177 -0.32408177074 -0.16043415396 2.4002257251 -0.2138753619
          -0.24925873201 2.4002742303 -0.1038957503 -0.33854251443 2.3999372642 0.0031399777968
          -0.42765076718 2.4005495689 0.11226428562 -0.51704236635 2.3996459979 0.2229332402
          -0.60698505946 2.3998103193 0.33200076562 -0.69675034438 2.3998869595 0.43869012257
          -0.7859427057 2.4008368948 0.54904217013 -0.87475700749 2.3985981587 0.65865820786
          -0.072101471525 2.1783750717 -0.32363645106 -0.16137972901 2.1785139369 -0.21314030646
          -0.24848630764 2.1777066279 -0.10433936634 -0.33821637045 2.1787478404 0.0041559512357
          -0.42776661118 2.17827821 0.11318930216 -0.51732692427 2.177942928 0.22204361209
          -0.60730615171 2.1779923913 0.33223043418 -0.69571407066 2.1782464161 0.43959297585
          -0.78690244006 2.1784132514 0.54906660957 -0.87393532588 2.177904506 0.65981905886
          -0.073299052702 1.954685179 -0.32270199228 -0.16152790297 1.9561244154 -0.21283723352
          -0.24918474972 1.9549688949 -0.10496482358 -0.33839300971 1.9552194181 0.0040542791602
          -0.42780232482 1.9549157002 0.11286997642 -0.51687433543 1.955391831 0.22191666802
          -0.60693554134 1.9550447339 0.33051718925 -0.69609632234 1.9562051563 0.44026382398
          -0.78747741386 1.9558344202 0.54843147078 -0.87460767534 1.9557816327 0.65890089696
          -0.07347920792 1.7332651476 -0.3218331584 -0.16187573098 1.7329875788 -0.21315824004
          -0.24949354503 1.7336918761 -0.10602789308 -0.33887576998 1.7328733301 0.0047920016557
          -0.42686047591 1.7315228258 0.11292426243 -0.51812032669 1.7320035225 0.22213590164
          -0.60855413819 1.7340080126 0.33228822399 -0.69726916324 1.7343181857 0.44118584376
          -0.78756033569 1.7344292574 0.5500836508 -0.87648157837 1.7336216045 0.65971497012
          -0.073292446297 1.5112866564 -0.32431171009 -0.16087178333 1.5118458194 -0.21343321165
          -0.2502452713 1.5114003382 -0.10671888026 -0.33889658646 1.5113887284 0.0033624229219
          -0.42829264487 1.5102760771 0.11325722426 -0.51960867504 1.5106343138 0.22263841235
          -0.60865175971 1.5117500467 0.33344445375 -0.69786162549 1.5108769279 0.44191189808
          -0.78727621639 1.5119860739 0.5503763074 -0.87508923634 1.5108203369 0.65990391047
          -0.075178932158 1.2896990745 -0.32163448705 -0.16120443506 1.2888300066 -0.21308855679
          -0.25024094348 1.288802203 -0.10446784016 -0.33894435702 1.2886812283 0.0039567075745
          -0.42686802581 1.2882855008 0.11269549782 -0.51992243299 1.2891268326 0.22443840754
          -0.60893701675 1.2887073346 0.33273659244 -0.69886969561 1.2899404048 0.44186608235
          -0.78792873728 1.289005942 0.54975769441 -0.88001979041 1.2895344127 0.65897891769
          -0.070169398037 1.0683380195 -0.32499671509 -0.16266444321 1.0674768604 -0.21305771373
          -0.25015740651 1.0668347237 -0.10459323483 -0.33791789043 1.0663733444 0.0047659388238
          -0.42883924539 1.0665830735 0.11252345331 -0.52089251274 1.067102025 0.2248944097
          -0.60977993223 1.0672486519 0.33388814562 -0.69990058797 1.0675217537 0.44210051424
          -0.79011813569 1.068551409 0.5505276184 -0.87439705035 1.0686154078 0.66155433521
          -0.071339809555 0.84164656199 -0.32304375081 -0.16277606464 0.84268516251 -0.21522865153
          -0.2504950393 0.84542959473 -0.10156876625 -0.34320956865 0.84593280463 0.0039460724568
          -0.42617300916 0.84600035992 0.11478621331 -0.52555047133 0.84639787509 0.22814622024
          -0.61341585879 0.8463285691 0.33644202137 -0.70103679628 0.84563297734 0.44071039017
          -0.78919130867 0.84706215962 0.55480427498 -0.8790701677 0.84154947577 0.65884720098
          0.041168186738 2.8473467549 -0.45574915412 -0.053065965327 2.8470747624 -0.34131987434
          -0.14112642385 2.8426853121 -0.2366390686 -0.23011736905 2.8461155418 -0.12955595577
          -0.31887885901 2.8447401621 -0.018483362632 -0.40827112048 2.8441417336 0.088788856112
          -0.49753565724 2.8444116618 0.19950567839 -0.58573308797 2.843767586 0.30588252157
          -0.67394780549 2.846131769 0.41542933253 -0.75863827182 2.8467612479 0.52723020528
          0.036319605387 2.6227566029 -0.45502512019 -0.052233580294 2.6222957739 -0.34633153314
          -0.14066061688 2.6237189271 -0.23650023399 -0.22892859261 2.6225799849 -0.1290818056
          -0.31937857837 2.6223126414 -0.019804214588 -0.4079636413 2.6224244152 0.090179405694
          -0.49732789326 2.6220624321 0.1987826468 -0.58725024719 2.6235044181 0.30679518467
          -0.67657966466 2.6203739958 0.41675975625 -0.76552574804 2.6225386632 0.52467091111
          0.037413224346 2.4012055563 -0.45443778612 -0.051554855414 2.4003487501 -0.34671098033
          -0.14086013154 2.4000585507 -0.23771883656 -0.23021980513 2.3994818024 -0.12822355014
          -0.31980143279 2.3993392113 -0.019406028693 -0.40899579787 2.3993665049 0.089195655186
          -0.49892046462 2.3991055542 0.19770139285 -0.58738413938 2.3996928363 0.30707892874
          -0.6764840735 2.3991771207 0.41617562462 -0.76670195259 2.3999088096 0.52413698906
          0.035895800175 2.1787390078 -0.45565138319 -0.050425436006 2.1776369229 -0.34585180255
          -0.14069389319 2.1783762737 -0.23758054483 -0.23018980217 2.1773521672 -0.12859002927
          -0.31934631486 2.1774219654 -0.019730948131 -0.40890576689 2.1773066637 0.089270849232
          -0.49864534292 2.1770148563 0.19774203149 -0.58730809999 2.1778190093 0.30714764218
          -0.67646581598 2.1775834628 0.4158031317 -0.76685155099 2.1779529024 0.52710446455
          0.036435741053 1.9563672042 -0.45615787837 -0.052624755936 1.9558575469 -0.34712993784
          -0.14113886345 1.9555726944 -0.23757937889 -0.23046439634 1.9553815298 -0.1292931661
          -0.32000790213 1.9556752513 -0.020426988121 -0.40918631167 1.9550202331 0.089267776426
          -0.49852116743 1.9556123148 0.1989701879 -0.58803301004 1.9550161027 0.30733025485
          -0.67791475406 1.9556952089 0.4175966483 -0.76623082357 1.9553964737 0.52674278092
          0.035878789168 1.7340214409 -0.45507576234 -0.051995891097 1.7334208841 -0.34746689135
          -0.14112722346 1.7333730194 -0.23829117217 -0.23039144031 1.7328266071 -0.12915882235
          -0.31809119118 1.7320717055 -0.019736456516 -0.41044783779 1.7331776153 0.0894241965
          -0.49919760031 1.7331614723 0.19883710627 -0.58772577559 1.7328089572 0.30723717353
          -0.67756518267 1.7329280235 0.41729325006 -0.76684537216 1.7347577028 0.52740754193
          0.034924084503 1.5126388953 -0.45496499006 -0.052918406204 1.511615366 -0.34709959497
          -0.14106824043 1.511082727 -0.23831957619 -0.23082228229 1.5108962065 -0.13181272462
          -0.31924437912 1.5096087972 -0.020029245396 -0.4108528996 1.5098952835 0.091033147564
          -0.49963568474 1.5112057279 0.19957179296 -0.58969064752 1.5115768845 0.30840086848
          -0.67908640788 1.5110816057 0.41746014216 -0.76958889456 1.5124014344 0.52574820512
          0.036680232131 1.2904740695 -0.45788361119 -0.052846737909 1.2892223596 -0.34743714781
          -0.13917613983 1.2901904787 -0.23813210142 -0.2281564954 1.2885942617 -0.12922257947
          -0.3201065889 1.2871426094 -0.020968357237 -0.41219539695 1.2880249389 0.091130719903
          -0.49889885035 1.2889891825 0.19894754532 -0.58835298636 1.2904451612 0.30814576876
          -0.67941047823 1.2893116293 0.41776365079 -0.76759079262 1.2888057525 0.527275163
          0.035478593576 1.0687448718 -0.45806722732 -0.053482834993 1.0670844026 -0.34820807153
          -0.14213600005 1.0665990959 -0.23911386762 -0.22856556252 1.0650901223 -0.12940023628
          -0.31968587787 1.0658562809 -0.021663649543 -0.41231759078 1.0675680706 0.092649009588
          -0.50026906765 1.0660260942 0.20086843466 -0.59017507366 1.0665678479 0.30972906848
          -0.67928403279 1.0668948164 0.41852650894 -0.76711035375 1.0692769672 0.52912386648
          0.035648006742 0.84466098034 -0.45677891674 -0.052670535703 0.84545644491 -0.35130228954
          -0.14150540431 0.84323544226 -0.23999097623 -0.23094718923 0.84502915678 -0.12881557704
          -0.31755281407 0.84422467546 -0.021771913937 -0.41056336265 0.84491940743 0.091578029362
          -0.50213874536 0.84462514442 0.20039587708 -0.59037282694 0.84341447337 0.30918166403
          -0.67909939224 0.84611347944 0.4219343219 -0.77005529076 0.84642559307 0.53016914704
          0.14953492608 2.8536244392 -0.58421954902 0.058821041173 2.8448512339 -0.47755678028
          -0.030773540332 2.8432458481 -0.37149993286 -0.12118278975 2.8427380635 -0.260842269
          -0.20905438133 2.8428918626 -0.15141200539 -0.29877765783 2.8428332133 -0.043017155874
          -0.38700724203 2.8425746686 0.065779565768 -0.47736766788 2.8435858407 0.17416928416
          -0.56818898579 2.8431297567 0.28327695775 -0.65894926696 2.8428621233 0.39325247018
          0.14636710194 2.6230303051 -0.58920020268 0.057691825531 2.6229831672 -0.47836874353
          -0.031889258146 2.6221889871 -0.36957856373 -0.12048812295 2.6224191839 -0.26134847383
          -0.21032963814 2.6221225088 -0.15227117762 -0.29938583924 2.6221820488 -0.043286369209
          -0.38727895607 2.6218121461 0.066593360061 -0.4790458803 2.6217060091 0.17411461862
          -0.56837376931 2.6214427397 0.2832356339 -0.65798791892 2.6220443928 0.38992470685
          0.14587159509 2.4014179196 -0.58956088546 0.058196111356 2.3995169513 -0.47958434472
          -0.031540343108 2.4004115391 -0.37015913765 -0.12083139104 2.4000877612 -0.26130367383
          -0.21022538552 2.3994739595 -0.15250755891 -0.29961684805 2.3994209133 -0.043570984991
          -0.38862379017 2.3998769983 0.065161160489 -0.47882362597 2.3982971584 0.17505801601
          -0.56686669982 2.3983667967 0.28280504943 -0.65703610236 2.4000099866 0.39450929949
          0.14600202833 2.1787057222 -0.58864550055 0.056658819435 2.1768009403 -0.47953121451
          -0.031879056936 2.1775618301 -0.36934339595 -0.12099980584 2.1772626949 -0.26160208916
          -0.21053509229 2.1770034182 -0.15254174245 -0.29993245978 2.1768998404 -0.043571919759
          -0.38920098581 2.177267243 0.065452253216 -0.47901616585 2.1769305151 0.17344489359
          -0.56832904365 2.1757963072 0.28383655001 -0.65662510374 2.1782153329 0.39343552375
          0.14659650017 1.9558768983 -0.58897614507 0.057236920202 1.956663918 -0.4805783352
          -0.032263746771 1.9556601834 -0.37014517646 -0.12080801845 1.9535210583 -0.26010568414
          -0.21055224349 1.9547068699 -0.15282035072 -0.30031665691 1.9543028365 -0.043779787558
          -0.38984527589 1.9539550983 0.064439633823 -0.47930688653 1.9548413647 0.17403958859
          -0.56850020137 1.9555278903 0.28386609943 -0.65751811283 1.9559131046 0.39277152057
          0.14438483668 1.733433864 -0.58871035317 0.056084678115 1.7341518611 -0.48093515776
          -0.032168329534 1.7336702659 -0.37169193242 -0.12139932957 1.732675015 -0.26246617409
          -0.21087225903 1.7325968367 -0.15312446202 -0.30054879788 1.7324237608 -0.04278292251
          -0.38995285867 1.732659971 0.066048083169 -0.47945570826 1.7328588372 0.17526621507
          -0.56924571644 1.733322207 0.28431059008 -0.65882709183 1.732608762 0.39334315059
          0.14511319982 1.5121904785 -0.59045523232 0.056684068195 1.5116148023 -0.48027272863