<?xml version="1.0"?>
<VTKFile type="UnstructuredGrid" version="0.1" byte_order="LittleEndian" compressor="vtkZLibDataCompressor">
  <UnstructuredGrid>
    <FieldData>
      <DataArray type="Float64" Name="TIME" NumberOfTuples="1" format="ascii" RangeMin="0.66703555625" RangeMax="0.66703555625">
        0.66703555625
      </DataArray>
    </FieldData>
    <Piece NumberOfPoints="1000" NumberOfCells="0">
      <PointData>
        <DataArray type="Float64" Name="Damage" format="ascii" RangeMin="0" RangeMax="0.50406504065">
          0 0 0 0 0 0
          0 0 0 0 0 0.027932960894
          0 0 0 0 0 0
          0.027932960894 0 0 0.055084745763 0.071428571429 0.040345821326
          0.014164305949 0.012987012987 0.040345821326 0.071428571429 0.055084745763 0
          0 0.067669172932 0.11239193084 0.1074168798 0.037688442211 0.034562211982
          0.1074168798 0.11239193084 0.067669172932 0 0 0.074349442379
          0.16147308782 0.16834170854 0.12376237624 0.11286681716 0.16834170854 0.16147308782
          0.074349442379 0 0 0.084459459459 0.2 0.25806451613
          0.33860045147 0.39211618257 0.25806451613 0.2 0.084459459459 0
          0 0.093984962406 0.25360230548 0.36061381074 0.41959798995 0.46774193548
          0.36061381074 0.25360230548 0.093984962406 0 0 0.10593220339
          0.31493506494 0.40057636888 0.4447592068 0.49090909091 0.40057636888 0.31493506494
          0.10593220339 0 0 0.16759776536 0.3686440678 0.43984962406
          0.44609665428 0.5 0.43984962406 0.3686440678 0.16759776536 0
          0 0.1744966443 0.36734693878 0.44343891403 0.45089285714 0.50406504065
          0.44343891403 0.36734693878 0.18120805369 0.008064516129 0 0
          0 0 0 0 0 0
          0 0 0 0.027906976744 0 0
          0 0 0 0 0.027906976744 0
          0 0.056338028169 0.072776280323 0.040669856459 0.014117647059 0.012931034483
          0.040669856459 0.072776280323 0.056338028169 0 0 0.06875
          0.11483253589 0.10828025478 0.0375782881 0.034416826004 0.10828025478 0.11483253589
          0.06875 0 0 0.074303405573 0.16235294118 0.16910229645
          0.12371134021 0.11257035647 0.16910229645 0.16235294118 0.074303405573 0
          0 0.084269662921 0.20043103448 0.25812619503 0.33771106942 0.39242685026
          0.25812619503 0.20043103448 0.084269662921 0 0 0.09375
          0.25358851675 0.36093418259 0.41962421712 0.46845124283 0.36093418259 0.25358851675
          0.09375 0 0 0.10563380282 0.3153638814 0.4019138756
          0.44470588235 0.49137931034 0.4019138756 0.3153638814 0.10563380282 0
          0 0.16744186047 0.36971830986 0.440625 0.44582043344 0.49719101124
          0.440625 0.36971830986 0.16744186047 0 0 0.17318435754
          0.3686440678 0.43984962406 0.44609665428 0.49662162162 0.43984962406 0.3686440678
          0.17318435754 0 0 0 0 0
          0 0 0 0 0 0
          0 0.024647887324 0 0 0 0
          0 0 0.024647887324 0 0 0.051212938005
          0.06875 0.038817005545 0.012635379061 0.011666666667 0.038817005545 0.06875
          0.051212938005 0 0 0.064593301435 0.10905730129 0.10491803279
          0.036858974359 0.034023668639 0.10491803279 0.10905730129 0.064593301435 0
          0 0.070588235294 0.15523465704 0.16506410256 0.12283464567 0.11271676301
          0.16506410256 0.15523465704 0.070588235294 0 0 0.081896551724
          0.19333333333 0.25443786982 0.33959537572 0.38985313752 0.25443786982 0.19333333333
          0.081896551724 0 0 0.093301435407 0.24768946396 0.35573770492
          0.41987179487 0.46449704142 0.35573770492 0.24768946396 0.093301435407 0
          0 0.10781671159 0.30833333333 0.39556377079 0.4440433213 0.48666666667
          0.39556377079 0.30833333333 0.10781671159 0 0 0.16197183099
          0.35579514825 0.43062200957 0.44470588235 0.49137931034 0.43062200957 0.35579514825
          0.16197183099 0 0 0.16101694915 0.3538961039 0.42939481268
          0.4447592068 0.49090909091 0.42939481268 0.3538961039 0.16101694915 0
          0 0 0 0 0 0
          0 0 0 0 0 0.025
          0 0 0 0 0 0
          0.025 0 0 0.05023923445 0.068391866913 0.039344262295
          0.012820512821 0.011834319527 0.039344262295 0.068391866913 0.05023923445 0
          0 0.063694267516 0.10819672131 0.10465116279 0.036984352774 0.034120734908
          0.10465116279 0.10819672131 0.063694267516 0 0 0.070981210856
          0.15544871795 0.16500711238 0.12290502793 0.11282051282 0.16500711238 0.15544871795
          0.070981210856 0 0 0.082217973231 0.19378698225 0.25459317585
          0.33974358974 0.38981042654 0.25459317585 0.19378698225 0.082217973231 0
          0 0.093418259023 0.24918032787 0.35610465116 0.41963015647 0.46456692913
          0.35610465116 0.24918032787 0.093418259023 0 0 0.10765550239
          0.30868761553 0.39508196721 0.44391025641 0.48668639053 0.39508196721 0.30868761553
          0.10765550239 0 0 0.1625 0.35645933014 0.43099787686
          0.44467640919 0.4913957935 0.43099787686 0.35645933014 0.1625 0
          0 0.16165413534 0.35446685879 0.42966751918 0.44472361809 0.49078341014
          0.42966751918 0.35446685879 0.16165413534 0 0 0
          0 0 0 0 0 0
          0 0 0 0.02786377709 0 0
          0 0 0 0 0.02786377709 0
          0 0.054117647059 0.070397111913 0.040064102564 0.014173228346 0.013005780347
          0.040064102564 0.070397111913 0.054117647059 0 0 0.066805845511
          0.11057692308 0.106685633 0.037709497207 0.034615384615 0.106685633 0.11057692308
          0.066805845511 0 0 0.074226804124 0.16062992126 0.16759776536
          0.12362637363 0.11292346299 0.16759776536 0.16062992126 0.074226804124 0
          0 0.084427767355 0.19942196532 0.25769230769 0.33877038896 0.39145496536
          0.25769230769 0.19942196532 0.084427767355 0 0 0.093945720251
          0.25320512821 0.35988620199 0.41899441341 0.46666666667 0.35988620199 0.25320512821
          0.093945720251 0 0 0.10588235294 0.31407942238 0.39903846154
          0.44409448819 0.48988439306 0.39903846154 0.31407942238 0.10588235294 0
          0 0.16718266254 0.36705882353 0.43841336117 0.44536082474 0.49530956848
          0.43841336117 0.36705882353 0.16718266254 0 0 0.16728624535
          0.36543909348 0.43718592965 0.44554455446 0.49435665914 0.43718592965 0.36543909348
          0.16728624535 0 0 0 0 0
          0 0 0 0 0 0
          0 0.025280898876 0 0 0 0
          0 0 0.025280898876 0 0 0.049568965517
          0.066666666667 0.038461538462 0.013005780347 0.012016021362 0.038461538462 0.066666666667
          0.049568965517 0 0 0.06309751434 0.1050295858 0.10367454068
          0.037179487179 0.034360189573 0.10367454068 0.1050295858 0.06309751434 0
          0 0.071294559099 0.15462427746 0.1641025641 0.12296110414 0.11316397229
          0.1641025641 0.15462427746 0.071294559099 0 0 0.082616179002
          0.19359145527 0.25473933649 0.34064665127 0.38930481283 0.25473933649 0.19359145527
          0.082616179002 0 0 0.093690248566 0.24852071006 0.35564304462
          0.41923076923 0.46327014218 0.35564304462 0.24852071006 0.093690248566 0
          0 0.10775862069 0.30833333333 0.39349112426 0.4436416185 0.48598130841
          0.39349112426 0.30833333333 0.10775862069 0 0 0.16292134831
          0.35560344828 0.43021032505 0.44465290807 0.49053356282 0.43021032505 0.35560344828
          0.16292134831 0 0 0.16216216216 0.35324675325 0.42857142857
          0.44469525959 0.48962655602 0.42857142857 0.35324675325 0.16216216216 0
          0 0 0 0 0 0
          0 0 0 0 0 0.025
          0 0 0 0 0 0
          0.025 0 0 0.05023923445 0.068391866913 0.039344262295
          0.012820512821 0.011834319527 0.039344262295 0.068391866913 0.05023923445 0
          0 0.063694267516 0.10819672131 0.10465116279 0.036984352774 0.034120734908
          0.10465116279 0.10819672131 0.063694267516 0 0 0.070981210856
          0.15544871795 0.16500711238 0.12290502793 0.11282051282 0.16500711238 0.15544871795
          0.070981210856 0 0 0.082217973231 0.19378698225 0.25459317585
          0.33974358974 0.38981042654 0.25459317585 0.19378698225 0.082217973231 0
          0 0.093418259023 0.24918032787 0.35610465116 0.41963015647 0.46456692913
          0.35610465116 0.24918032787 0.093418259023 0 0 0.10765550239
          0.30868761553 0.39508196721 0.44391025641 0.48668639053 0.39508196721 0.30868761553
          0.10765550239 0 0 0.1625 0.35645933014 0.43099787686
          0.44467640919 0.4913957935 0.43099787686 0.35645933014 0.1625 0
          0 0.16165413534 0.35446685879 0.42966751918 0.44472361809 0.49078341014
          0.42966751918 0.35446685879 0.16165413534 0 0 0
          0 0 0 0 0 0
          0 0 0 0.024647887324 0 0
          0 0 0 0 0.024647887324 0
          0 0.051212938005 0.06875 0.038817005545 0.012635379061 0.011666666667
          0.038817005545 0.06875 0.051212938005 0 0 0.064593301435
          0.10905730129 0.10491803279 0.036858974359 0.034023668639 0.10491803279 0.10905730129
          0.064593301435 0 0 0.070588235294 0.15523465704 0.16506410256
          0.12283464567 0.11271676301 0.16506410256 0.15523465704 0.070588235294 0
          0 0.081896551724 0.19333333333 0.25443786982 0.33959537572 0.38985313752
          0.25443786982 0.19333333333 0.081896551724 0 0 0.093301435407
          0.24768946396 0.35573770492 0.41987179487 0.46449704142 0.35573770492 0.24768946396
          0.093301435407 0 0 0.10781671159 0.30833333333 0.39556377079
          0.4440433213 0.48666666667 0.39556377079 0.30833333333 0.10781671159 0
          0 0.16197183099 0.35579514825 0.43062200957 0.44470588235 0.49137931034
          0.43062200957 0.35579514825 0.16197183099 0 0 0.16101694915
          0.3538961039 0.42939481268 0.4447592068 0.49090909091 0.42939481268 0.3538961039
          0.16101694915 0 0 0 0 0
          0 0 0 0 0 0
          0 0.027906976744 0 0 0 0
          0 0 0.027906976744 0 0 0.056338028169
          0.072776280323 0.040669856459 0.014117647059 0.012931034483 0.040669856459 0.072776280323
          0.056338028169 0 0 0.06875 0.11483253589 0.10828025478
          0.0375782881 0.034416826004 0.10828025478 0.11483253589 0.06875 0
          0 0.074303405573 0.16235294118 0.16910229645 0.12371134021 0.11257035647
          0.16910229645 0.16235294118 0.074303405573 0 0 0.084269662921
          0.20043103448 0.25812619503 0.33771106942 0.39242685026 0.25812619503 0.20043103448
          0.084269662921 0 0 0.09375 0.25358851675 0.36093418259
          0.41962421712 0.46845124283 0.36093418259 0.25358851675 0.09375 0
          0 0.10563380282 0.3153638814 0.4019138756 0.44470588235 0.49137931034
          0.4019138756 0.3153638814 0.10563380282 0 0 0.16744186047
          0.36971830986 0.440625 0.44582043344 0.49719101124 0.440625 0.36971830986
          0.16744186047 0 0 0.16759776536 0.3686440678 0.43984962406
          0.44609665428 0.49662162162 0.43984962406 0.3686440678 0.17318435754 0
          0 0 0 0 0 0
          0 0 0 0 0 0.027932960894
          0 0 0 0 0 0
          0.027932960894 0 0 0.055084745763 0.071428571429 0.040345821326
          0.014164305949 0.012987012987 0.040345821326 0.071428571429 0.055084745763 0
          0 0.067669172932 0.11239193084 0.1074168798 0.037688442211 0.034562211982
          0.1074168798 0.11239193084 0.067669172932 0 0 0.074349442379
          0.16147308782 0.16834170854 0.12376237624 0.11286681716 0.16834170854 0.16147308782
          0.074349442379 0 0 0.084459459459 0.2 0.25806451613
          0.33860045147 0.39211618257 0.25806451613 0.2 0.084459459459 0
          0 0.093984962406 0.25360230548 0.36061381074 0.41959798995 0.46774193548
          0.36061381074 0.25360230548 0.093984962406 0 0 0.10593220339
          0.31493506494 0.40057636888 0.4447592068 0.49090909091 0.40057636888 0.31493506494
          0.10593220339 0 0 0.16759776536 0.3686440678 0.43984962406
          0.44609665428 0.49662162162 0.43984962406 0.3686440678 0.16759776536 0
          0 0.1677852349 0.36734693878 0.43891402715 0.44642857143 0.49593495935
          0.43891402715 0.36734693878 0.1744966443 0
        </DataArray>
        <DataArray type="Float64" Name="Displacement" NumberOfComponents="3" format="ascii" RangeMin="1.6981864431" RangeMax="1.9179860514">
          0.017926005249 -1.7943538479 -0.17818574965 0.0081969351439 -1.7753394487 -0.18137254052
          0.0094827427961 -1.7599068716 -0.1852442233 0.0082744265478 -1.748876242 -0.18582639022
          0.0095573827292 -1.7422886899 -0.18013998176 0.0089088711679 -1.734746351 -0.17930218713
          0.0090962878874 -1.7186218288 -0.18271341114 0.0030847143029 -1.7080686065 -0.18191091411
          0.006135046504 -1.704761666 -0.17668548963 0.0036258483063 -1.6986048531 -0.17819411255
          0.00028065446549 -1.7863920689 -0.17157486314 -0.00063035272551 -1.7775847602 -0.16743467808
          -0.0010604828014 -1.7675251713 -0.16668736532 -0.0028452978092 -1.7528811578 -0.16898226125
          -0.0029805978761 -1.7409371709 -0.16968776214 -0.002878210563 -1.7310125167 -0.16878161677
          -0.0034334329907 -1.7196153148 -0.16906556953 -0.0035885498128 -1.7146472747 -0.16601249533
          -0.0043406866818 -1.6999616511 -0.16760931816 -0.00416481419 -1.6933363457 -0.16663198279
          -0.01103180702 -1.7891199748 -0.15442836675 -0.0094364932045 -1.7765874696 -0.15706302152
          -0.011837739218 -1.7674709292 -0.15476780638 -0.012996520114 -1.7558098177 -0.15526623604
          -0.013067822649 -1.7455808665 -0.15521497662 -0.012874932524 -1.7358893065 -0.15378201307
          -0.013512575188 -1.7237727163 -0.15412692361 -0.014043866187 -1.7153563178 -0.15255746756
          -0.018732602178 -1.7044788597 -0.15518377519 -0.015696894062 -1.6911545427 -0.15358097543
          -0.023004791998 -1.7891923784 -0.14117555013 -0.021486069332 -1.7786151377 -0.14286593895
          -0.023279920512 -1.768698085 -0.14187128877 -0.023117354959 -1.7571971167 -0.14247640449
          -0.022590398611 -1.7460490146 -0.14260366464 -0.023536999453 -1.7359586735 -0.14204598376
          -0.023313499972 -1.7261726951 -0.14096005998 -0.02407265945 -1.7155483234 -0.14013940114
          -0.026140416261 -1.704668854 -0.14083603452 -0.025006773223 -1.6951693788 -0.13860225486
          -0.034686389897 -1.7907634826 -0.125909757 -0.031560951826 -1.7794690491 -0.13006299415
          -0.033528559591 -1.7687111546 -0.1285384408 -0.033244409231 -1.7589384127 -0.12898229895
          -0.033584132238 -1.7471685745 -0.12845242279 -0.034274583517 -1.7372024462 -0.127928368
          -0.035297564013 -1.7267218588 -0.1277009382 -0.034836739933 -1.7159070548 -0.12707602515
          -0.036617596394 -1.7065523227 -0.12749449184 -0.034019712298 -1.6967117159 -0.12393113099
          -0.044792522087 -1.7909717854 -0.11298252566 -0.042110406873 -1.7802513689 -0.11703114225
          -0.042921096166 -1.7702442839 -0.1162625062 -0.043607283465 -1.7594858614 -0.11544623428
          -0.042079456343 -1.7487694839 -0.11523319381 -0.047211130555 -1.7378076339 -0.11395654241
          -0.045631191689 -1.7276192424 -0.11457868344 -0.046247350544 -1.7177923291 -0.11459349637
          -0.046633757221 -1.7077740926 -0.11421541 -0.045034002859 -1.6968583054 -0.11126475435
          -0.052118743142 -1.7920054152 -0.10313075 -0.054461800643 -1.7826227023 -0.1029810244
          -0.053472134172 -1.7720951584 -0.10414930733 -0.055164762246 -1.7610826891 -0.10285829119
          -0.052424496947 -1.7501726796 -0.1008887477 -0.058801010948 -1.7385727236 -0.098427229848
          -0.055306953715 -1.7285762025 -0.10112923367 -0.055793989817 -1.719603092 -0.10272459959
          -0.054641474286 -1.7094256881 -0.1004258911 -0.058093489927 -1.698773937 -0.10132633669
          -0.06042046127 -1.7933115188 -0.092533363779 -0.06311898878 -1.783790563 -0.090321185266
          -0.063627100723 -1.7731578989 -0.090274077718 -0.062678205752 -1.762801333 -0.09013765208
          -0.067955998808 -1.7514142511 -0.092281944981 -0.061771367453 -1.7390419863 -0.091473833139
          -0.068423455456 -1.7311196941 -0.088285816651 -0.066457358136 -1.7210672226 -0.088709449223
          -0.065179877248 -1.7108826784 -0.086986862482 -0.068793017866 -1.7010728538 -0.090342921094
          -0.075843523618 -1.7991192958 -0.074174234091 -0.07145649769 -1.7832828295 -0.075977395276
          -0.07220849853 -1.7738838299 -0.077441085652 -0.073355917718 -1.7645612341 -0.076870434247
          -0.074414540886 -1.7566617957 -0.077707436204 -0.073404037287 -1.7428489575 -0.078314958789
          -0.076018144365 -1.7311923375 -0.074736803307 -0.07655986101 -1.7213640157 -0.075486617061
          -0.077335944407 -1.7114415324 -0.07374113995 -0.071645737051 -1.7068622852 -0.071321450242
          -0.087730026399 -1.791372655 -0.056160094409 -0.081976562794 -1.7918960109 -0.076836218499
          -0.081676189201 -1.7742658193 -0.064265498325 -0.083449486877 -1.765091797 -0.065570492765
          -0.075614015826 -1.7588961751 -0.059468377127 -0.081589857232 -1.7359478816 -0.056313662544
          -0.077940588557 -1.7299629671 -0.064316765601 -0.084148050818 -1.7222317674 -0.062052805165
          -0.083508344293 -1.7215468794 -0.075544694645 -0.073534341647 -1.7055836353 -0.054089740496
          0.01451292207 -1.8016315519 -0.18404268862 0.0077202230804 -1.7860790071 -0.17999728285
          0.01111715825 -1.7787449859 -0.18024165562 0.0099182390365 -1.7679189153 -0.18154180408
          0.009793700715 -1.7580244709 -0.18023325366 0.0088492789487 -1.7469488404 -0.179978146
          0.0081955172306 -1.7364919811 -0.1804612203 0.0067127301482 -1.724698649 -0.17983701081
          0.0094255485116 -1.7127261337 -0.17781096921 0.0038073011314 -1.7103955986 -0.17982184185
          -0.00073778200433 -1.7991666078 -0.16784489253 0.00050900293304 -1.7887827571 -0.16871735964
          -0.0012603992823 -1.7785085427 -0.16862142887 -0.00026720063143 -1.7675732723 -0.16906422755
          -0.0017419554987 -1.7570779761 -0.16915150074 -0.00175994135 -1.746993905 -0.16810331452
          -0.0030981893984 -1.7360588308 -0.16777874381 -0.0022746097146 -1.7259030791 -0.16665721433
          -0.002801392222 -1.7168584128 -0.16564263804 -0.0015882787686 -1.7026294088 -0.16533832266
          -0.011437901422 -1.8007616069 -0.15544397572 -0.009523047355 -1.7895433866 -0.1570688824
          -0.010956625638 -1.7796833537 -0.15562225678 -0.011286883486 -1.7689134129 -0.15614351405
          -0.011857013865 -1.7588351883 -0.1554790974 -0.012195723298 -1.7482180294 -0.15511827813
          -0.012775667516 -1.7374547927 -0.1549482632 -0.013510393747 -1.7272505668 -0.15383393005
          -0.015065183643 -1.7169274502 -0.15426260668 -0.012848816103 -1.7067905193 -0.15158610404
          -0.021760202954 -1.8013258566 -0.1424187322 -0.020734043443 -1.7910182207 -0.1436277011
          -0.020916786106 -1.7810762458 -0.1432426029 -0.021840850773 -1.7706984565 -0.14260010698
          -0.022224979433 -1.759964876 -0.14274863484 -0.022739966436 -1.7493581427 -0.14221572971
          -0.023450760762 -1.738786005 -0.14141912528 -0.024157661657 -1.7283181861 -0.14116193678
          -0.024559329669 -1.7176085295 -0.14120537029 -0.023942093868 -1.706535233 -0.1397737886
          -0.031492795718 -1.8031850215 -0.12940183433 -0.03112565406 -1.7926345745 -0.13052541229
          -0.03215034226 -1.7827100957 -0.12981963984 -0.032506332854 -1.7717446777 -0.129826304
          -0.032734567854 -1.7612986395 -0.12907197164 -0.033359306041 -1.7504444382 -0.1285087331
          -0.034469219556 -1.7396011402 -0.12890987549 -0.034261487694 -1.7298245262 -0.12792246093
          -0.035107430718 -1.7195090486 -0.12816223956 -0.034723201449 -1.7093942492 -0.12676383906
          -0.041091602777 -1.8030309756 -0.11647844826 -0.041244463092 -1.7935100033 -0.11714979798
          -0.04247236374 -1.7833947574 -0.1173144378 -0.042233665065 -1.7728090733 -0.11693596993
          -0.043047345194 -1.7630747648 -0.1164591237 -0.044208433447 -1.7516546957 -0.11567180609
          -0.045265416085 -1.7409219947 -0.1152352436 -0.045439298669 -1.7306822523 -0.11576461532
          -0.045571015639 -1.7207198667 -0.11488183018 -0.04581949608 -1.7095398459 -0.11388287418
          -0.051288016845 -1.8056020828 -0.1048988369 -0.051411916913 -1.795238133 -0.10468493563
          -0.052432462969 -1.7852356233 -0.10447041065 -0.052994477485 -1.77435177 -0.10358767619
          -0.052629455231 -1.7644924924 -0.10359101108 -0.054975747379 -1.7529124862 -0.10233363146
          -0.054438413753 -1.7422346283 -0.10275773394 -0.055472809243 -1.7326220842 -0.10241595199
          -0.056119976512 -1.7223835398 -0.10243355442 -0.055436151774 -1.7126125707 -0.10135900764
          -0.060627549784 -1.80532442 -0.091712392279 -0.061175387997 -1.7958515545 -0.09197468817
          -0.06234656158 -1.7858873023 -0.091526305629 -0.062018015723 -1.7753277011 -0.090173611585
          -0.062217022763 -1.7655354949 -0.089764165306 -0.064860327523 -1.7531344651 -0.089506106005
          -0.065523971131 -1.7432391734 -0.089227959684 -0.065652535897 -1.7334879031 -0.08985108223
          -0.065725597867 -1.7236005653 -0.089766249353 -0.065962962536 -1.7128286959 -0.088958286247
          -0.071736710479 -1.8081482746 -0.079221332658 -0.071019163202 -1.7960257643 -0.077980654518
          -0.071939081388 -1.7872274386 -0.078464001182 -0.072782695818 -1.7773530808 -0.078267497352
          -0.07338851001 -1.7669058173 -0.077487714264 -0.072563183697 -1.7535752298 -0.07757058869
          -0.073708571801 -1.7444553047 -0.076969360774 -0.074566901638 -1.7347043133 -0.076898439381
          -0.075651525177 -1.724155431 -0.075944302218 -0.075041234983 -1.7154593899 -0.075970632603
          -0.080541303585 -1.8072003883 -0.067880443903 -0.079296820153 -1.7958286312 -0.065001622419
          -0.079025162923 -1.7866486058 -0.064377010319 -0.079486020985 -1.7791328532 -0.067242547529
          -0.082402017777 -1.7665063173 -0.066170230537 -0.082923916778 -1.7548576125 -0.065893718613
          -0.086329408044 -1.7458965461 -0.06574833978 -0.086412102306 -1.7341992943 -0.062197005696
          -0.085685710148 -1.7247327785 -0.063350426067 -0.083776979648 -1.7172238493 -0.065582830632
          0.0066712199946 -1.8085190729 -0.18179976064 0.011269650991 -1.7992534412 -0.18437524445
          0.011555299134 -1.7899766551 -0.1820674015 0.0099509721024 -1.7785478883 -0.18357682558
          0.0095471300366 -1.7693921972 -0.18209600133 0.0090662748512 -1.7592014275 -0.18161915024
          0.0088451940156 -1.7465960115 -0.18270457362 0.0083838903163 -1.7383239635 -0.18093648914
          0.0088818945343 -1.7243210116 -0.18066059246 0.011617859798 -1.7117642539 -0.17694974208
          0.0037308134788 -1.8131854871 -0.17303836591 0.0015063159243 -1.8018623973 -0.17051352205
          0.0010004551412 -1.7920183043 -0.16971169858 0.00024344281615 -1.7808141524 -0.17002056535
          -0.00016574448842 -1.7706340845 -0.16900753185 -0.00084674420778 -1.7596567853 -0.16910430434
          -0.0016873160664 -1.7490992576 -0.16894748205 -0.0025072707589 -1.7394123374 -0.16763036162
          -0.0027980152969 -1.7277689396 -0.16710817866 -0.0042323914523 -1.7194162046 -0.16846477896
          -0.008639697976 -1.8131936493 -0.1583157327 -0.0090644869581 -1.8027257493 -0.15773479766
          -0.010000121342 -1.7925653869 -0.15699756035 -0.01042104475 -1.7823980805 -0.15655205438
          -0.010908463692 -1.7718611061 -0.15639032219 -0.011387390404 -1.7611873058 -0.15600227329
          -0.012060950753 -1.7507253421 -0.15535331222 -0.012713991657 -1.7397240921 -0.15511984112
          -0.013992407979 -1.7295201927 -0.15520781261 -0.013850320856 -1.7184696179 -0.15486700682
          -0.018877783898 -1.8140434595 -0.14526687457 -0.019859672615 -1.8043010063 -0.14443217359
          -0.020447769639 -1.7938555621 -0.14404657862 -0.021062607138 -1.7835356653 -0.14367395323
          -0.021256931117 -1.7728584328 -0.14302686802 -0.021786399052 -1.7623204468 -0.14292480584
          -0.022558029861 -1.7517255786 -0.14244232883 -0.023350487287 -1.741230255 -0.14211737515
          -0.023789295153 -1.7308659922 -0.14212995653 -0.024683349606 -1.7198483804 -0.14205254627
          -0.029235526299 -1.8159917105 -0.13196779929 -0.030415618269 -1.8053225267 -0.13115759662
          -0.030916867477 -1.7949800342 -0.13095478241 -0.031749935097 -1.7848559789 -0.13070304524
          -0.031996192373 -1.7742098324 -0.13024833642 -0.032555241194 -1.7633362912 -0.12973412446
          -0.033046814222 -1.7530033798 -0.12947129879 -0.033731980386 -1.742552497 -0.12901912345
          -0.034425908936 -1.7320641109 -0.12876012937 -0.035283797114 -1.7220838851 -0.12892478942
          -0.040550694227 -1.8165672439 -0.11779272281 -0.040877261678 -1.806805013 -0.11799862578
          -0.041149149101 -1.7961345081 -0.11797358574 -0.041597405272 -1.7859175807 -0.11753884584
          -0.042389891113 -1.7757626672 -0.11728574069 -0.042946110476 -1.7645032868 -0.11624004098
          -0.043924532476 -1.7541067713 -0.11621746606 -0.044448327269 -1.7435767713 -0.11621580156
          -0.04453316304 -1.7336917493 -0.1156491052 -0.044472424284 -1.7232743699 -0.11475779544
          -0.049313368901 -1.8177352611 -0.10620805899 -0.049179102318 -1.8070882507 -0.10545265931
          -0.051334383566 -1.7975733258 -0.10504657827 -0.05109087227 -1.7873200256 -0.10438826316
          -0.05219043719 -1.7777665497 -0.10413583239 -0.052947288484 -1.7659854406 -0.1036036603
          -0.054855878608 -1.7555065078 -0.10315171234 -0.054565583782 -1.7451514676 -0.10319643775
          -0.056051846086 -1.734606167 -0.10299368331 -0.055965657252 -1.7245888036 -0.10324968379
          -0.060041259061 -1.8188699777 -0.09330592591 -0.06058302239 -1.8087539727 -0.091935410053
          -0.060980515723 -1.7986180819 -0.092229387583 -0.061752855606 -1.7889543196 -0.091769948143
          -0.060655720763 -1.7790956612 -0.091306271079 -0.064040933945 -1.7667108746 -0.090740360489
          -0.063498253495 -1.7566693723 -0.09064658091 -0.064840736047 -1.7460097646 -0.090199485239
          -0.064995358429 -1.7362120191 -0.089608826179 -0.065019414123 -1.7268600196 -0.09030658166
          -0.069599577314 -1.8195234704 -0.080325293085 -0.07107206458 -1.8097355548 -0.07833681604
          -0.071740178841 -1.8000744497 -0.078747359904 -0.071184390633 -1.7891386599 -0.07795442806
          -0.069298224116 -1.7826258661 -0.079168328299 -0.074612716136 -1.7698454577 -0.079085862494
          -0.07426290641 -1.757048644 -0.077062427183 -0.073250431825 -1.7477103319 -0.077429772392
          -0.073859647464 -1.7371554772 -0.076156689624 -0.075387042832 -1.7268356599 -0.076963735479
          -0.079802971935 -1.82303544 -0.068667293687 -0.078835896321 -1.8113996167 -0.067332690521
          -0.079253318658 -1.8022406718 -0.066806851267 -0.083094203315 -1.791281442 -0.067532310435
          -0.08500616182 -1.7793338365 -0.06501124175 -0.079285461366 -1.7654791415 -0.064704458294
          -0.08100931082 -1.7581503824 -0.066383703962 -0.084005486258 -1.7500289418 -0.064812104638
          -0.085486380666 -1.7393035099 -0.064633585667 -0.083115851662 -1.7322687818 -0.066382807198
          0.0079833360827 -1.8220009616 -0.18340377425 0.012301925753 -1.8152034045 -0.18379337594
          0.011274109725 -1.8033462051 -0.18357890059 0.012290952053 -1.7921506902 -0.18259267859
          0.010408810516 -1.7802586011 -0.18333047887 0.0098709807665 -1.7696786343 -0.18258753882
          0.0091506796603 -1.76046422 -0.18112904902 0.010646654663 -1.7495506522 -0.182442899
          0.0094360477822 -1.7405592029 -0.1814724506 0.012944842415 -1.7240213208 -0.18102745891
          -0.00045891828376 -1.8225417537 -0.17107428403 0.0019227640156 -1.8145210797 -0.17120556452
          0.0013510605439 -1.8046814152 -0.17055673176 0.00092319014459 -1.7941267104 -0.17016099131
          0.00026838184269 -1.7835669954 -0.16978613123 -0.00013782737462 -1.7732302867 -0.16952074233
          -0.00058732664892 -1.7624359856 -0.16897475571 -0.00097210571537 -1.7521001679 -0.16870017103
          -0.0019153688663 -1.7413283348 -0.16785372684 9.8441467681e-05 -1.7263073351 -0.16775269512
          -0.0079229660325 -1.8255947753 -0.15881170907 -0.0092910136038 -1.8156282284 -0.15816103779
          -0.0091093614728 -1.8055226736 -0.15773025077 -0.0098124675004 -1.7948404988 -0.1575795727
          -0.010233255178 -1.7845783866 -0.15705266251 -0.010527779258 -1.7740099703 -0.15670915331
          -0.011292068556 -1.7632444485 -0.15621906391 -0.011751066167 -1.7530695285 -0.15565750872
          -0.011832808735 -1.7419400615 -0.15559939306 -0.013154053166 -1.7312500578 -0.15501109248
          -0.018665379175 -1.8269665627 -0.14490207206 -0.019204143284 -1.8171681938 -0.14503928843
          -0.019623816592 -1.8068838051 -0.14469025526 -0.020108005793 -1.7965842252 -0.1444615116
          -0.02067272274 -1.7860981607 -0.14407649876 -0.021041653709 -1.7751982722 -0.14364016741
          -0.021640923857 -1.7646142311 -0.1431501065 -0.022217014699 -1.7541373689 -0.14283566362
          -0.022769971169 -1.7438197864 -0.14241413255 -0.023252683583 -1.7326669806 -0.14165771013
          -0.028677066067 -1.8287720876 -0.13201797311 -0.029496613685 -1.8182824095 -0.13191425033
          -0.029965718847 -1.8079328685 -0.1317484023 -0.030604238809 -1.7976097752 -0.13134046252
          -0.031131652885 -1.7875211819 -0.13105776397 -0.031619537482 -1.7764007715 -0.13061755513
          -0.032321362484 -1.7658573842 -0.13012327241 -0.032986800674 -1.755346376 -0.12974424974
          -0.033433377314 -1.745096465 -0.12936837654 -0.034297903129 -1.7346402994 -0.12909179072
          -0.039209927903 -1.8295879086 -0.11891242063 -0.03944961878 -1.819122907 -0.11895241644
          -0.040486062869 -1.8091246635 -0.11865861012 -0.041154750893 -1.7989804369 -0.11824224167