<?xml version="1.0"?>
<VTKFile type="UnstructuredGrid" version="0.1" byte_order="LittleEndian" compressor="vtkZLibDataCompressor">
  <UnstructuredGrid>
    <FieldData>
      <DataArray type="Float64" Name="TIME" NumberOfTuples="1" format="ascii" RangeMin="0.69388653782" RangeMax="0.69388653782">
        0.69388653782
      </DataArray>
    </FieldData>
    <Piece NumberOfPoints="1000" NumberOfCells="0">
      <PointData>
        <DataArray type="Float64" Name="Damage" format="ascii" RangeMin="0" RangeMax="0.50406504065">
          0 0 0 0 0 0
          0 0 0 0 0 0.027932960894
          0 0 0 0 0 0
          0.027932960894 0 0 0.055084745763 0.071428571429 0.040345821326
          0.014164305949 0.012987012987 0.040345821326 0.071428571429 0.055084745763 0
          0 0.067669172932 0.11239193084 0.1074168798 0.037688442211 0.034562211982
          0.1074168798 0.11239193084 0.067669172932 0 0 0.074349442379
          0.16147308782 0.16834170854 0.12376237624 0.11286681716 0.16834170854 0.16147308782
          0.074349442379 0 0 0.084459459459 0.2 0.25806451613
          0.33860045147 0.39211618257 0.25806451613 0.2 0.084459459459 0
          0 0.093984962406 0.25360230548 0.36061381074 0.41959798995 0.46774193548
          0.36061381074 0.25360230548 0.093984962406 0 0 0.10593220339
          0.31493506494 0.40057636888 0.4447592068 0.49090909091 0.40057636888 0.31493506494
          0.10593220339 0 0 0.17318435754 0.3686440678 0.43984962406
          0.44981412639 0.5 0.43984962406 0.3686440678 0.17318435754 0
          0.016129032258 0.18791946309 0.36734693878 0.44343891403 0.45535714286 0.50406504065
          0.44343891403 0.36734693878 0.18791946309 0.008064516129 0 0
          0 0 0 0 0 0
          0 0 0 0.027906976744 0 0
          0 0 0 0 0.027906976744 0
          0 0.056338028169 0.072776280323 0.040669856459 0.014117647059 0.012931034483
          0.040669856459 0.072776280323 0.056338028169 0 0 0.06875
          0.11483253589 0.10828025478 0.0375782881 0.034416826004 0.10828025478 0.11483253589
          0.06875 0 0 0.074303405573 0.16235294118 0.16910229645
          0.12371134021 0.11257035647 0.16910229645 0.16235294118 0.074303405573 0
          0 0.084269662921 0.20043103448 0.25812619503 0.33771106942 0.39242685026
          0.25812619503 0.20043103448 0.084269662921 0 0 0.09375
          0.25358851675 0.36093418259 0.41962421712 0.46845124283 0.36093418259 0.25358851675
          0.09375 0 0 0.10563380282 0.3153638814 0.4019138756
          0.44470588235 0.49137931034 0.4019138756 0.3153638814 0.10563380282 0
          0 0.16744186047 0.36971830986 0.440625 0.44582043344 0.49719101124
          0.440625 0.36971830986 0.16744186047 0 0.006711409396 0.17318435754
          0.3686440678 0.43984962406 0.44609665428 0.49662162162 0.43984962406 0.3686440678
          0.17318435754 0 0 0 0 0
          0 0 0 0 0 0
          0 0.024647887324 0 0 0 0
          0 0 0.024647887324 0 0 0.051212938005
          0.06875 0.038817005545 0.012635379061 0.011666666667 0.038817005545 0.06875
          0.051212938005 0 0 0.064593301435 0.10905730129 0.10491803279
          0.036858974359 0.034023668639 0.10491803279 0.10905730129 0.064593301435 0
          0 0.070588235294 0.15523465704 0.16506410256 0.12283464567 0.11271676301
          0.16506410256 0.15523465704 0.070588235294 0 0 0.081896551724
          0.19333333333 0.25443786982 0.33959537572 0.38985313752 0.25443786982 0.19333333333
          0.081896551724 0 0 0.093301435407 0.24768946396 0.35573770492
          0.41987179487 0.46449704142 0.35573770492 0.24768946396 0.093301435407 0
          0 0.10781671159 0.30833333333 0.39556377079 0.4440433213 0.48666666667
          0.39556377079 0.30833333333 0.10781671159 0 0 0.16197183099
          0.35579514825 0.43062200957 0.44470588235 0.49137931034 0.43062200957 0.35579514825
          0.16197183099 0 0 0.16101694915 0.3538961039 0.42939481268
          0.4447592068 0.49090909091 0.42939481268 0.3538961039 0.16101694915 0
          0 0 0 0 0 0
          0 0 0 0 0 0.025
          0 0 0 0 0 0
          0.025 0 0 0.05023923445 0.068391866913 0.039344262295
          0.012820512821 0.011834319527 0.039344262295 0.068391866913 0.05023923445 0
          0 0.063694267516 0.10819672131 0.10465116279 0.036984352774 0.034120734908
          0.10465116279 0.10819672131 0.063694267516 0 0 0.070981210856
          0.15544871795 0.16500711238 0.12290502793 0.11282051282 0.16500711238 0.15544871795
          0.070981210856 0 0 0.082217973231 0.19378698225 0.25459317585
          0.33974358974 0.38981042654 0.25459317585 0.19378698225 0.082217973231 0
          0 0.093418259023 0.24918032787 0.35610465116 0.41963015647 0.46456692913
          0.35610465116 0.24918032787 0.093418259023 0 0 0.10765550239
          0.30868761553 0.39508196721 0.44391025641 0.48668639053 0.39508196721 0.30868761553
          0.10765550239 0 0 0.1625 0.35645933014 0.43099787686
          0.44467640919 0.4913957935 0.43099787686 0.35645933014 0.1625 0
          0 0.16165413534 0.35446685879 0.42966751918 0.44472361809 0.49078341014
          0.42966751918 0.35446685879 0.16165413534 0 0 0
          0 0 0 0 0 0
          0 0 0 0.02786377709 0 0
          0 0 0 0 0.02786377709 0
          0 0.054117647059 0.070397111913 0.040064102564 0.014173228346 0.013005780347
          0.040064102564 0.070397111913 0.054117647059 0 0 0.066805845511
          0.11057692308 0.106685633 0.037709497207 0.034615384615 0.106685633 0.11057692308
          0.066805845511 0 0 0.074226804124 0.16062992126 0.16759776536
          0.12362637363 0.11292346299 0.16759776536 0.16062992126 0.074226804124 0
          0 0.084427767355 0.19942196532 0.25769230769 0.33877038896 0.39145496536
          0.25769230769 0.19942196532 0.084427767355 0 0 0.093945720251
          0.25320512821 0.35988620199 0.41899441341 0.46666666667 0.35988620199 0.25320512821
          0.093945720251 0 0 0.10588235294 0.31407942238 0.39903846154
          0.44409448819 0.48988439306 0.39903846154 0.31407942238 0.10588235294 0
          0 0.16718266254 0.36705882353 0.43841336117 0.44536082474 0.49530956848
          0.43841336117 0.36705882353 0.16718266254 0 0 0.16728624535
          0.36543909348 0.43718592965 0.44554455446 0.49435665914 0.43718592965 0.36543909348
          0.16728624535 0 0 0 0 0
          0 0 0 0 0 0
          0 0.025280898876 0 0 0 0
          0 0 0.025280898876 0 0 0.049568965517
          0.066666666667 0.038461538462 0.013005780347 0.012016021362 0.038461538462 0.066666666667
          0.049568965517 0 0 0.06309751434 0.1050295858 0.10367454068
          0.037179487179 0.034360189573 0.10367454068 0.1050295858 0.06309751434 0
          0 0.071294559099 0.15462427746 0.1641025641 0.12296110414 0.11316397229
          0.1641025641 0.15462427746 0.071294559099 0 0 0.082616179002
          0.19359145527 0.25473933649 0.34064665127 0.38930481283 0.25473933649 0.19359145527
          0.082616179002 0 0 0.093690248566 0.24852071006 0.35564304462
          0.41923076923 0.46327014218 0.35564304462 0.24852071006 0.093690248566 0
          0 0.10775862069 0.30833333333 0.39349112426 0.4436416185 0.48598130841
          0.39349112426 0.30833333333 0.10775862069 0 0 0.16292134831
          0.35560344828 0.43021032505 0.44465290807 0.49053356282 0.43021032505 0.35560344828
          0.16292134831 0 0 0.16216216216 0.35324675325 0.42857142857
          0.44469525959 0.48962655602 0.42857142857 0.35324675325 0.16216216216 0
          0 0 0 0 0 0
          0 0 0 0 0 0.025
          0 0 0 0 0 0
          0.025 0 0 0.05023923445 0.068391866913 0.039344262295
          0.012820512821 0.011834319527 0.039344262295 0.068391866913 0.05023923445 0
          0 0.063694267516 0.10819672131 0.10465116279 0.036984352774 0.034120734908
          0.10465116279 0.10819672131 0.063694267516 0 0 0.070981210856
          0.15544871795 0.16500711238 0.12290502793 0.11282051282 0.16500711238 0.15544871795
          0.070981210856 0 0 0.082217973231 0.19378698225 0.25459317585
          0.33974358974 0.38981042654 0.25459317585 0.19378698225 0.082217973231 0
          0 0.093418259023 0.24918032787 0.35610465116 0.41963015647 0.46456692913
          0.35610465116 0.24918032787 0.093418259023 0 0 0.10765550239
          0.30868761553 0.39508196721 0.44391025641 0.48668639053 0.39508196721 0.30868761553
          0.10765550239 0 0 0.1625 0.35645933014 0.43099787686
          0.44467640919 0.4913957935 0.43099787686 0.35645933014 0.1625 0
          0 0.16165413534 0.35446685879 0.42966751918 0.44472361809 0.49078341014
          0.42966751918 0.35446685879 0.16165413534 0 0 0
          0 0 0 0 0 0
          0 0 0 0.024647887324 0 0
          0 0 0 0 0.024647887324 0
          0 0.051212938005 0.06875 0.038817005545 0.012635379061 0.011666666667
          0.038817005545 0.06875 0.051212938005 0 0 0.064593301435
          0.10905730129 0.10491803279 0.036858974359 0.034023668639 0.10491803279 0.10905730129
          0.064593301435 0 0 0.070588235294 0.15523465704 0.16506410256
          0.12283464567 0.11271676301 0.16506410256 0.15523465704 0.070588235294 0
          0 0.081896551724 0.19333333333 0.25443786982 0.33959537572 0.38985313752
          0.25443786982 0.19333333333 0.081896551724 0 0 0.093301435407
          0.24768946396 0.35573770492 0.41987179487 0.46449704142 0.35573770492 0.24768946396
          0.093301435407 0 0 0.10781671159 0.30833333333 0.39556377079
          0.4440433213 0.48666666667 0.39556377079 0.30833333333 0.10781671159 0
          0 0.16197183099 0.35579514825 0.43062200957 0.44470588235 0.49137931034
          0.43062200957 0.35579514825 0.16197183099 0 0 0.16101694915
          0.3538961039 0.42939481268 0.4447592068 0.49090909091 0.42939481268 0.3538961039
          0.16101694915 0 0 0 0 0
          0 0 0 0 0 0
          0 0.027906976744 0 0 0 0
          0 0 0.027906976744 0 0 0.056338028169
          0.072776280323 0.040669856459 0.014117647059 0.012931034483 0.040669856459 0.072776280323
          0.056338028169 0 0 0.06875 0.11483253589 0.10828025478
          0.0375782881 0.034416826004 0.10828025478 0.11483253589 0.06875 0
          0 0.074303405573 0.16235294118 0.16910229645 0.12371134021 0.11257035647
          0.16910229645 0.16235294118 0.074303405573 0 0 0.084269662921
          0.20043103448 0.25812619503 0.33771106942 0.39242685026 0.25812619503 0.20043103448
          0.084269662921 0 0 0.09375 0.25358851675 0.36093418259
          0.41962421712 0.46845124283 0.36093418259 0.25358851675 0.09375 0
          0 0.10563380282 0.3153638814 0.4019138756 0.44470588235 0.49137931034
          0.4019138756 0.3153638814 0.10563380282 0 0 0.16744186047
          0.36971830986 0.440625 0.44582043344 0.49719101124 0.440625 0.36971830986
          0.16744186047 0 0 0.16759776536 0.3686440678 0.43984962406
          0.44609665428 0.49662162162 0.43984962406 0.3686440678 0.17318435754 0
          0 0 0 0 0 0
          0 0 0 0 0 0.027932960894
          0 0 0 0 0 0
          0.027932960894 0 0 0.055084745763 0.071428571429 0.040345821326
          0.014164305949 0.012987012987 0.040345821326 0.071428571429 0.055084745763 0
          0 0.067669172932 0.11239193084 0.1074168798 0.037688442211 0.034562211982
          0.1074168798 0.11239193084 0.067669172932 0 0 0.074349442379
          0.16147308782 0.16834170854 0.12376237624 0.11286681716 0.16834170854 0.16147308782
          0.074349442379 0 0 0.084459459459 0.2 0.25806451613
          0.33860045147 0.39211618257 0.25806451613 0.2 0.084459459459 0
          0 0.093984962406 0.25360230548 0.36061381074 0.41959798995 0.46774193548
          0.36061381074 0.25360230548 0.093984962406 0 0 0.10593220339
          0.31493506494 0.40057636888 0.4447592068 0.49090909091 0.40057636888 0.31493506494
          0.10593220339 0 0 0.16759776536 0.3686440678 0.43984962406
          0.44609665428 0.49662162162 0.43984962406 0.3686440678 0.16759776536 0
          0.008064516129 0.1744966443 0.36734693878 0.43891402715 0.44642857143 0.49593495935
          0.43891402715 0.36734693878 0.18120805369 0.008064516129
        </DataArray>
        <DataArray type="Float64" Name="Displacement" NumberOfComponents="3" format="ascii" RangeMin="1.3612907986" RangeMax="1.8195881594">
          0.045464063007 -1.5372956566 -0.25079774478 0.050112377052 -1.5281983205 -0.24540087176
          0.039964908971 -1.497550559 -0.24755192356 0.046504411706 -1.4849408708 -0.24344967182
          0.044066109359 -1.464316527 -0.23789677755 0.041538631813 -1.4406733543 -0.23995398273
          0.042257660426 -1.4217590101 -0.23546314617 0.042127677812 -1.3891620041 -0.23841603513
          0.035097564172 -1.3754539704 -0.23401842046 0.032657035155 -1.3408664198 -0.23264436512
          0.029748102044 -1.5448688433 -0.22774061874 0.026502256725 -1.527599544 -0.22177576504
          0.027641644145 -1.5083927388 -0.2203603194 0.025046009869 -1.4864657598 -0.21895439352
          0.022564852776 -1.4619953726 -0.21710678334 0.018997761053 -1.4380675487 -0.21692015792
          0.017487797212 -1.4235519985 -0.21254021863 0.014213723088 -1.4014174596 -0.21095869316
          0.015069616938 -1.3790529764 -0.20740659342 0.0082241420804 -1.3534567977 -0.2079938243
          0.0081685643395 -1.5534149728 -0.19784284085 0.0069335458452 -1.5324656049 -0.19533138688
          0.0040492323336 -1.5126925997 -0.19363516607 0.0034244358572 -1.4905318713 -0.1927546205
          0.0010224202449 -1.4699848659 -0.19070125779 -0.0010645667578 -1.4476611231 -0.18863786566
          -0.0038035342114 -1.4272523869 -0.18640926218 -0.0046839107942 -1.4063001573 -0.18332310537
          -0.0095290051461 -1.3846218182 -0.18212854369 -0.010703621121 -1.3630511283 -0.1807729394
          -0.013715253687 -1.5588624522 -0.17063569857 -0.0148013636 -1.5384451327 -0.16982002789
          -0.016496701029 -1.5179447964 -0.16781328999 -0.018326414214 -1.4964342648 -0.16645810809
          -0.020543144251 -1.4755980278 -0.16428588961 -0.021825484042 -1.4534563886 -0.16278321094
          -0.024350776627 -1.4316629244 -0.16012909901 -0.025504234993 -1.4118517858 -0.15696293735
          -0.028566186277 -1.3897368613 -0.15623428437 -0.029734530761 -1.3676654163 -0.15240935241
          -0.032748918362 -1.5623743516 -0.14514227194 -0.036017534388 -1.5435711275 -0.14344599915
          -0.037754777215 -1.5231029219 -0.14171250125 -0.039736689839 -1.5018979112 -0.13934943618
          -0.041742880834 -1.4803481456 -0.13859908085 -0.04439073669 -1.4572818184 -0.13522737414
          -0.04446068935 -1.4384823442 -0.13284969352 -0.04665024235 -1.416844433 -0.13082603009
          -0.049726231329 -1.3947429431 -0.12953078256 -0.053304283432 -1.3719917402 -0.12714465642
          -0.052765006157 -1.5685490367 -0.1195088638 -0.05460915654 -1.5475664247 -0.11904240885
          -0.058218874758 -1.5279514461 -0.115819186 -0.060528510333 -1.507274064 -0.11464458364
          -0.064132749427 -1.4866211752 -0.11379404353 -0.062124920881 -1.4637714168 -0.11105106512
          -0.066432332526 -1.4431993235 -0.10754488447 -0.068587154164 -1.4217889318 -0.10494159138
          -0.072806683146 -1.4000272267 -0.10490973909 -0.074517064918 -1.3787272482 -0.10142809307
          -0.075390317747 -1.5740699594 -0.09130803375 -0.077554801055 -1.5533603664 -0.090711338638
          -0.078767777382 -1.5329703067 -0.08975999219 -0.079475270882 -1.5119862427 -0.087308683293
          -0.082239263841 -1.4910276892 -0.086796859475 -0.086445659919 -1.4689873256 -0.083924383502
          -0.090388657866 -1.4487802654 -0.079750445281 -0.090930584343 -1.4274179773 -0.079557484457
          -0.091577504645 -1.4056402434 -0.076620368309 -0.094662895042 -1.3835337997 -0.073621971766
          -0.095392473502 -1.5757837974 -0.065265203992 -0.095365434053 -1.557426219 -0.065093922949
          -0.098277007422 -1.536525068 -0.062211300766 -0.10128095379 -1.5164647316 -0.061697071686
          -0.10283196545 -1.4960500629 -0.060635586486 -0.10761428772 -1.4744283478 -0.05726585015
          -0.11016727555 -1.4531992284 -0.054879135185 -0.11219554601 -1.4312372254 -0.051931955864
          -0.11596746339 -1.4104451264 -0.051219127754 -0.11710113069 -1.386070316 -0.047591698444
          -0.11544955082 -1.5851161226 -0.041264693837 -0.11555491349 -1.5604072457 -0.037300189315
          -0.11750734779 -1.5405852813 -0.034794219241 -0.11803045224 -1.5201512161 -0.033295332427
          -0.11864770923 -1.5018670255 -0.033148154804 -0.13102369053 -1.4808719979 -0.028946108455
          -0.13433772556 -1.4572280784 -0.027402461467 -0.13508755369 -1.435651463 -0.024703847967
          -0.13853335948 -1.4129586916 -0.024308227797 -0.13630124401 -1.3949378975 -0.024215574573
          -0.12645411557 -1.582332892 -0.021420849038 -0.12986445717 -1.5734683101 -0.028150061893
          -0.14000321788 -1.5472067438 -0.011912388026 -0.1396963048 -1.5251603592 -0.0075281224642
          -0.15482519122 -1.4986515581 -0.005061547489 -0.1413307231 -1.4713468876 -0.00095853137328
          -0.14801844902 -1.4604371773 -0.0013882857689 -0.15148856974 -1.4426376456 -0.0014301567365
          -0.15920460335 -1.4297358574 -0.014731868663 -0.16626049928 -1.3947712405 0.0026248045584
          0.054335854498 -1.5667874438 -0.25601729766 0.052346723322 -1.5506685827 -0.25074561407
          0.051739457797 -1.5279102599 -0.25126678928 0.048639062095 -1.5064198897 -0.24954559213
          0.046411996689 -1.4871697192 -0.24364606165 0.044913558055 -1.4686372991 -0.2408019257
          0.041665399868 -1.443944443 -0.24291133917 0.038221793897 -1.4229724832 -0.24050914907
          0.040354114736 -1.397844651 -0.2385798298 0.035699095793 -1.3749185965 -0.23665214468
          0.032051091904 -1.5732184363 -0.22801412251 0.032916618838 -1.5552686936 -0.22766005144
          0.029557585506 -1.5334987816 -0.22394960477 0.027473837025 -1.5117539108 -0.2221776579
          0.025060351373 -1.4898167233 -0.22014185369 0.023014064895 -1.4697234955 -0.21731600244
          0.021133021324 -1.4484193222 -0.2164611769 0.018795795967 -1.4279910541 -0.21293182361
          0.016202721493 -1.4068900783 -0.21217628022 0.014805940138 -1.3810896725 -0.20974807414
          0.01153337986 -1.5805658724 -0.20024945584 0.0093516791652 -1.5593529788 -0.19915540211
          0.0082614254939 -1.5374426107 -0.19781871351 0.0059246257675 -1.5166491906 -0.19621372842
          0.0039025733363 -1.4958696519 -0.19424610103 0.0024404272334 -1.4744726933 -0.19168742073
          -7.6049213237e-05 -1.4532613262 -0.18954433029 -0.0024101622718 -1.4321156535 -0.18677064308
          -0.0033843219811 -1.4114017076 -0.18415642593 -0.0062178499277 -1.3899695155 -0.18202547986
          -0.0093755945995 -1.5862996647 -0.17353744606 -0.011198378061 -1.5642861197 -0.17291193638
          -0.012796072746 -1.5429347326 -0.17161858586 -0.014938018007 -1.5225290344 -0.16957620515
          -0.016846489121 -1.5016822554 -0.16762107625 -0.018976674565 -1.4802108884 -0.1655255898
          -0.021258100719 -1.458530952 -0.16368883284 -0.023754329543 -1.4369915027 -0.16141730816
          -0.025009868306 -1.4157498749 -0.15847910317 -0.026849755797 -1.3947124077 -0.15506165676
          -0.031729800793 -1.5915542883 -0.14573765533 -0.0320004257 -1.5692314845 -0.14710587886
          -0.03452789224 -1.5488224534 -0.14469005843 -0.03591704972 -1.5270946131 -0.14271138739
          -0.038067509414 -1.5068202488 -0.14157835241 -0.040051665577 -1.4852906406 -0.1390029346
          -0.041966718004 -1.4635829755 -0.13641705902 -0.044409917678 -1.442544058 -0.13432107338
          -0.046510058556 -1.4208757334 -0.13269211154 -0.046560825708 -1.4010407197 -0.12727105639
          -0.050858251514 -1.5947365983 -0.12085803423 -0.052965915765 -1.5740148482 -0.12105987495
          -0.054935940554 -1.5533745288 -0.11915438366 -0.056940467497 -1.5325540085 -0.11655453435
          -0.059026108913 -1.5121837092 -0.11607433564 -0.061490398666 -1.4905980047 -0.11295840195
          -0.063602712386 -1.4687821899 -0.11049166267 -0.065961322312 -1.4473469846 -0.10855946655
          -0.068023872333 -1.4259705645 -0.10662613928 -0.06959449999 -1.4040304657 -0.10207835292
          -0.071107362405 -1.6000801198 -0.094555300617 -0.073109859411 -1.5791517509 -0.094427426683
          -0.074147428003 -1.557764973 -0.092686760884 -0.077189026662 -1.537502945 -0.090763129768
          -0.078495637115 -1.516787461 -0.088926253875 -0.083788554685 -1.4958432611 -0.086303843556
          -0.085652252598 -1.4740782413 -0.083835676348 -0.088078954299 -1.4527169562 -0.082335938009
          -0.09015728959 -1.4313346279 -0.080322851299 -0.091210039319 -1.4099733893 -0.075938021637
          -0.090218530845 -1.6030092739 -0.070926042902 -0.093892368197 -1.5840885753 -0.06723293658
          -0.094858391518 -1.5633251157 -0.06622427448 -0.095405828655 -1.5423814548 -0.064365858417
          -0.099607948369 -1.5214644844 -0.062602149063 -0.10414620179 -1.4998214203 -0.059758784951
          -0.10887093234 -1.479880562 -0.057960790859 -0.10973575116 -1.4581487576 -0.055977206962
          -0.11097519814 -1.4363511504 -0.053730554186 -0.11437781866 -1.4143039695 -0.052537436883
          -0.10953232071 -1.6062986046 -0.043476007881 -0.11201670049 -1.588841433 -0.042522269975
          -0.11542756831 -1.5684055347 -0.039992617899 -0.11690280848 -1.5473292608 -0.038327324479
          -0.1186296451 -1.5267947172 -0.037322968648 -0.12676134932 -1.5055221959 -0.033882628134
          -0.12897448932 -1.4843657822 -0.031311566117 -0.13034342047 -1.4632812846 -0.029618996927
          -0.13353282429 -1.4422622152 -0.027815838857 -0.13690755855 -1.4189569979 -0.025445329752
          -0.12479805146 -1.6081710754 -0.018622103297 -0.13449265591 -1.5961696591 -0.015666479868
          -0.13599881142 -1.573857745 -0.013915865728 -0.13761983883 -1.5525627812 -0.0098218996207
          -0.14139594603 -1.5300949243 -0.012259825978 -0.14705791008 -1.5089756135 -0.0076292370413
          -0.14945293656 -1.4889153663 -0.0034569327457 -0.15062923514 -1.4685113796 -0.0036070759062
          -0.1526351474 -1.4475442255 -0.00016871796534 -0.16205017924 -1.4239270942 -0.0014338263142
          0.051846565513 -1.5924719513 -0.2566723618 0.054130944548 -1.5737484026 -0.25613268483
          0.052883814423 -1.5528387838 -0.25254312429 0.050156291059 -1.5309193161 -0.25138273858
          0.048443462738 -1.510565457 -0.25018539456 0.047295188159 -1.4880512261 -0.24801846767
          0.045156242656 -1.4673844832 -0.24468007006 0.044529771877 -1.4467711793 -0.24275985951
          0.042482933367 -1.4257616828 -0.24088174906 0.04207945288 -1.3971869239 -0.23971886006
          0.037461746166 -1.6001586111 -0.23195035932 0.034801972471 -1.5796661081 -0.22969487286
          0.032133753844 -1.5589023321 -0.22701135644 0.030509764267 -1.538614317 -0.22481714642
          0.027983076038 -1.5167394891 -0.22307857839 0.026506662744 -1.4959927156 -0.22060924341
          0.023936819089 -1.4747546673 -0.21894499057 0.0222382038 -1.4528531914 -0.21683453058
          0.019631859704 -1.4311872274 -0.21489973857 0.017356980183 -1.4108388298 -0.21234931634
          0.014668739409 -1.6061760954 -0.20452331338 0.013594045364 -1.5847753339 -0.20263654394
          0.011290310066 -1.5641290915 -0.20086077741 0.008852017361 -1.5431672949 -0.1988602462
          0.0072507100662 -1.5220473115 -0.19688892283 0.0052253147317 -1.5011079125 -0.19504956919
          0.0030848382064 -1.4795308033 -0.19267542048 0.00069829901308 -1.4580925795 -0.19047702158
          -0.0012822570189 -1.4364206383 -0.18780890487 -0.0028173294868 -1.4156398847 -0.18548158806
          -0.0064553315781 -1.6101659464 -0.17767947708 -0.0075644941199 -1.5900471421 -0.17700025835
          -0.010139648958 -1.5691153647 -0.17439396537 -0.011799135373 -1.5479904864 -0.17292768002
          -0.013736761727 -1.5274225738 -0.17077984951 -0.015981085572 -1.5062888202 -0.16880953544
          -0.018463572757 -1.4844615259 -0.16662467158 -0.020180484485 -1.4631358862 -0.164135562
          -0.022862480708 -1.441832372 -0.16257384771 -0.024337000871 -1.4198467084 -0.15926906781
          -0.026702001247 -1.6154546885 -0.15156605686 -0.028207097708 -1.594800946 -0.15019966268
          -0.030645797541 -1.5741799743 -0.14822846109 -0.032970073792 -1.5536170949 -0.14662018299
          -0.034991905903 -1.5326854145 -0.14485249854 -0.037149695693 -1.5113416491 -0.14255872171
          -0.039375961859 -1.489853863 -0.140193101 -0.041722482237 -1.4681964731 -0.1378822572
          -0.044366645239 -1.4469150069 -0.13583028179 -0.045759590364 -1.4253441059 -0.13287758941
          -0.046854825998 -1.6210894546 -0.12623191027 -0.049029050259 -1.599923759 -0.12398441646
          -0.051412159955 -1.5793284411 -0.12221093514 -0.053378377773 -1.5585704756 -0.12027246991
          -0.055500306953 -1.5379167434 -0.11877787614 -0.058539083021 -1.5165565349 -0.11629600555
          -0.061079566949 -1.4950905384 -0.11371857488 -0.062894646559 -1.4736506057 -0.11178033957
          -0.065510760845 -1.4520639768 -0.1096530818 -0.067485713163 -1.43117232 -0.10747086815
          -0.067926692437 -1.6257567492 -0.098753089013 -0.068700390901 -1.6045324363 -0.097738067034
          -0.072189518351 -1.584596999 -0.09591485417 -0.072959803596 -1.5636840658 -0.093767625862
          -0.075291364315 -1.5432128158 -0.092884673276 -0.080399115307 -1.522153076 -0.090089982955
          -0.08327624951 -1.500679486 -0.087448989375 -0.084525946358 -1.4789413717 -0.085589881008
          -0.088134701377 -1.4572673508 -0.083360232669 -0.088716140242 -1.435899135 -0.080691104175
          -0.088731924246 -1.6299342627 -0.071459921509 -0.089510428872 -1.6101598373 -0.071533374505
          -0.092221968602 -1.5889267748 -0.069216046953 -0.094849863437 -1.5693470666 -0.06883921949
          -0.096138481172 -1.5476072899 -0.065831059425 -0.10195175855 -1.5265791723 -0.062999199671
          -0.10310006176 -1.5058568514 -0.061692691266 -0.1062747883 -1.4839157858 -0.059254786136
          -0.10863371162 -1.4632276804 -0.057316905271 -0.11070570421 -1.4401138725 -0.053166983329
          -0.10778762387 -1.6350798752 -0.047406958776 -0.1101295869 -1.6143851894 -0.044786573563
          -0.11141643782 -1.5934267164 -0.042873990594 -0.11456180145 -1.5741134333 -0.04264108218
          -0.11656197847 -1.5531924036 -0.0403805594 -0.12277556715 -1.5319136968 -0.037137347834
          -0.12461533979 -1.5113159143 -0.036079485335 -0.12832387599 -1.4892143935 -0.032876919484
          -0.12977350502 -1.4675857121 -0.030453173311 -0.13135582546 -1.4469674372 -0.029223480545
          -0.13166566753 -1.6432489941 -0.019241332346 -0.1285632178 -1.6177410445 -0.017552018034
          -0.13384000189 -1.5987396512 -0.016529253785 -0.13453198752 -1.5793540361 -0.015058618264
          -0.13284812921 -1.5596736133 -0.014696632309 -0.14650180877 -1.5391634604 -0.011601816598
          -0.1460809623 -1.5165431563 -0.0081793346421 -0.14788354052 -1.4934460352 -0.0055290687074
          -0.15304473901 -1.4721559504 -0.0033504649064 -0.14813015937 -1.4540155054 -0.0011165463629
          0.061815018721 -1.6244934639 -0.26041694444 0.057926609287 -1.6012455022 -0.2598378234
          0.056057613029 -1.5798491002 -0.25658493435 0.05453393797 -1.5584776309 -0.254352206
          0.052543767294 -1.5373964785 -0.25145542877 0.049915268788 -1.516235276 -0.25028825857
          0.048255242913 -1.4950539384 -0.24799604573 0.045958431408 -1.4731866473 -0.24614332351
          0.044028147939 -1.4531982207 -0.24482189344 0.039497300282 -1.4349294378 -0.24427572516
          0.040123679513 -1.628030569 -0.23343426507 0.037318135317 -1.6058199811 -0.23223203155
          0.035113760277 -1.5849912635 -0.23023158188 0.032993834716 -1.5641807719 -0.22795344193
          0.031210283874 -1.5430373485 -0.22623428552 0.029222235839 -1.521768615 -0.22418467754
          0.027443215866 -1.5003327875 -0.22188471132 0.025187989875 -1.4794427519 -0.2200212295
          0.023097381321 -1.4573559117 -0.21764749655 0.019554609565 -1.4382706274 -0.21610002898
          0.01835982508 -1.6324111047 -0.20773324426 0.015901053154 -1.6109433617 -0.20588017921
          0.014144839826 -1.5903646858 -0.20404288743 0.012060869243 -1.5689966086 -0.20214765463
          0.010130779773 -1.5482123695 -0.20005591813 0.0081644975621 -1.5270608466 -0.19802885054
          0.0060395033922 -1.5054425631 -0.19588621935 0.0040712274473 -1.4844166572 -0.19361353944
          0.0020411585618 -1.4626032405 -0.19132071014 -0.00074994809114 -1.4426946611 -0.18931585236
          -0.0032836057705 -1.6365404714 -0.18046139915 -0.0043453106738 -1.6158740841 -0.1797752451
          -0.0069585100944 -1.5952605372 -0.17770442894 -0.0088800350779 -1.5743634331 -0.17597581878
          -0.010911250705 -1.5536280251 -0.17396548005 -0.012906870649 -1.532306566 -0.17190190466
          -0.015010925371 -1.5107027815 -0.16956731051 -0.017449858479 -1.4892903935 -0.16730832854
          -0.019766511289 -1.4678979542 -0.1652239355 -0.021274964564 -1.4459364131 -0.16197741295
          -0.023124087088 -1.641135726 -0.15479244969 -0.02536267179 -1.6209438424 -0.15335205023
          -0.027549431072 -1.6003207892 -0.15157433361 -0.029634632225 -1.5793569098 -0.14959361801
          -0.031799219051 -1.5589734052 -0.14791632098 -0.034032915881 -1.5375834992 -0.14573885171
          -0.036588961077 -1.5158330615 -0.14337294861 -0.03865336273 -1.4947099663 -0.14123724992
          -0.041002529139 -1.47314933 -0.13892407543 -0.043411641222 -1.451389294 -0.13655183388
          -0.043667987695 -1.6462026614 -0.12866952262 -0.045450742798 -1.6257947048 -0.12704777179
          -0.047924218028 -1.605255195 -0.12522218703 -0.050648139001 -1.5847757799 -0.12343459783
          -0.052108714562 -1.5640044463 -0.12213895035 -0.055842660195 -1.5427525376 -0.11963357993