<?xml version="1.0"?>
<VTKFile type="UnstructuredGrid" version="0.1" byte_order="LittleEndian" compressor="vtkZLibDataCompressor">
  <UnstructuredGrid>
    <FieldData>
      <DataArray type="Float64" Name="TIME" NumberOfTuples="1" format="ascii" RangeMin="1.3920120584" RangeMax="1.3920120584">
        1.3920120584
      </DataArray>
    </FieldData>
    <Piece NumberOfPoints="1000" NumberOfCells="0">
      <PointData>
        <DataArray type="Float64" Name="Damage" format="ascii" RangeMin="0" RangeMax="0.5081300813">
          0.024193548387 0.006711409396 0 0 0 0
          0 0.010204081633 0.046979865772 0.12903225806 0.006711409396 0.027932960894
          0 0 0 0 0 0
          0.033519553073 0.013422818792 0 0.055084745763 0.071428571429 0.040345821326
          0.014164305949 0.012987012987 0.040345821326 0.071428571429 0.055084745763 0.0051020408163
          0 0.067669172932 0.11239193084 0.1074168798 0.037688442211 0.034562211982
          0.1074168798 0.11239193084 0.067669172932 0 0 0.074349442379
          0.16147308782 0.16834170854 0.12376237624 0.11286681716 0.16834170854 0.16147308782
          0.074349442379 0 0 0.084459459459 0.2 0.25806451613
          0.33860045147 0.39211618257 0.25806451613 0.2 0.084459459459 0
          0 0.093984962406 0.25360230548 0.36061381074 0.41959798995 0.46774193548
          0.36061381074 0.25360230548 0.093984962406 0 0 0.10593220339
          0.31493506494 0.40057636888 0.4447592068 0.49090909091 0.40057636888 0.31493506494
          0.10593220339 0 0 0.17318435754 0.3686440678 0.43984962406
          0.44981412639 0.5 0.43984962406 0.3686440678 0.17318435754 0.006711409396
          0.016129032258 0.18791946309 0.36734693878 0.44343891403 0.46428571429 0.5081300813
          0.44343891403 0.36734693878 0.18791946309 0.024193548387 0.006711409396 0
          0 0 0 0 0.0037593984962 0.012711864407
          0.016759776536 0.046979865772 0 0.027906976744 0 0
          0 0 0 0 0.032558139535 0
          0 0.056338028169 0.072776280323 0.040669856459 0.014117647059 0.012931034483
          0.040669856459 0.072776280323 0.056338028169 0 0 0.06875
          0.11483253589 0.10828025478 0.0375782881 0.034416826004 0.10828025478 0.11483253589
          0.06875 0 0 0.074303405573 0.16235294118 0.16910229645
          0.12371134021 0.11257035647 0.16910229645 0.16235294118 0.074303405573 0
          0 0.084269662921 0.20043103448 0.25812619503 0.33771106942 0.39242685026
          0.25812619503 0.20043103448 0.084269662921 0 0 0.09375
          0.25358851675 0.36093418259 0.41962421712 0.46845124283 0.36093418259 0.25358851675
          0.09375 0 0 0.10563380282 0.3153638814 0.4019138756
          0.44470588235 0.49137931034 0.4019138756 0.3153638814 0.10563380282 0
          0 0.16744186047 0.36971830986 0.440625 0.44582043344 0.49719101124
          0.440625 0.36971830986 0.16744186047 0 0.013422818792 0.17877094972
          0.3686440678 0.44360902256 0.44981412639 0.5 0.43984962406 0.3686440678
          0.17877094972 0.013422818792 0 0 0 0
          0 0 0.0028818443804 0.0064935064935 0.012711864407 0.020408163265
          0 0.024647887324 0 0 0 0
          0 0 0.028169014085 0 0 0.051212938005
          0.06875 0.038817005545 0.012635379061 0.011666666667 0.038817005545 0.06875
          0.051212938005 0 0 0.064593301435 0.10905730129 0.10491803279
          0.036858974359 0.034023668639 0.10491803279 0.10905730129 0.064593301435 0
          0 0.070588235294 0.15523465704 0.16506410256 0.12283464567 0.11271676301
          0.16506410256 0.15523465704 0.070588235294 0 0 0.081896551724
          0.19333333333 0.25443786982 0.33959537572 0.38985313752 0.25443786982 0.19333333333
          0.081896551724 0 0 0.093301435407 0.24768946396 0.35573770492
          0.41987179487 0.46449704142 0.35573770492 0.24768946396 0.093301435407 0
          0 0.10781671159 0.30833333333 0.39556377079 0.4440433213 0.48666666667
          0.39556377079 0.30833333333 0.10781671159 0 0 0.16197183099
          0.35579514825 0.43062200957 0.44470588235 0.49137931034 0.43062200957 0.35579514825
          0.16197183099 0 0 0.16101694915 0.3538961039 0.42939481268
          0.4447592068 0.49090909091 0.42939481268 0.3538961039 0.16101694915 0
          0 0 0 0 0 0
          0 0.0028818443804 0.0075187969925 0 0 0.025
          0 0 0 0 0 0
          0.025 0 0 0.05023923445 0.068391866913 0.039344262295
          0.012820512821 0.011834319527 0.039344262295 0.068391866913 0.05023923445 0
          0 0.063694267516 0.10819672131 0.10465116279 0.036984352774 0.034120734908
          0.10465116279 0.10819672131 0.063694267516 0 0 0.070981210856
          0.15544871795 0.16500711238 0.12290502793 0.11282051282 0.16500711238 0.15544871795
          0.070981210856 0 0 0.082217973231 0.19378698225 0.25459317585
          0.33974358974 0.38981042654 0.25459317585 0.19378698225 0.082217973231 0
          0 0.093418259023 0.24918032787 0.35610465116 0.41963015647 0.46456692913
          0.35610465116 0.24918032787 0.093418259023 0 0 0.10765550239
          0.30868761553 0.39508196721 0.44391025641 0.48668639053 0.39508196721 0.30868761553
          0.10765550239 0 0 0.1625 0.35645933014 0.43099787686
          0.44467640919 0.4913957935 0.43099787686 0.35645933014 0.1625 0
          0 0.16165413534 0.35446685879 0.42966751918 0.44472361809 0.49078341014
          0.42966751918 0.35446685879 0.16165413534 0 0 0
          0 0 0 0 0 0
          0 0 0 0.02786377709 0 0
          0 0 0 0 0.02786377709 0
          0 0.054117647059 0.070397111913 0.040064102564 0.014173228346 0.013005780347
          0.040064102564 0.070397111913 0.054117647059 0 0 0.066805845511
          0.11057692308 0.106685633 0.037709497207 0.034615384615 0.106685633 0.11057692308
          0.066805845511 0 0 0.074226804124 0.16062992126 0.16759776536
          0.12362637363 0.11292346299 0.16759776536 0.16062992126 0.074226804124 0
          0 0.084427767355 0.19942196532 0.25769230769 0.33877038896 0.39145496536
          0.25769230769 0.19942196532 0.084427767355 0 0 0.093945720251
          0.25320512821 0.35988620199 0.41899441341 0.46666666667 0.35988620199 0.25320512821
          0.093945720251 0 0 0.10588235294 0.31407942238 0.39903846154
          0.44409448819 0.48988439306 0.39903846154 0.31407942238 0.10588235294 0
          0 0.16718266254 0.36705882353 0.43841336117 0.44536082474 0.49530956848
          0.43841336117 0.36705882353 0.16718266254 0 0 0.16728624535
          0.36543909348 0.43718592965 0.44554455446 0.49435665914 0.43718592965 0.36543909348
          0.16728624535 0 0 0 0 0
          0 0 0 0 0 0
          0 0.025280898876 0 0 0 0
          0 0 0.025280898876 0 0 0.049568965517
          0.066666666667 0.038461538462 0.013005780347 0.012016021362 0.038461538462 0.066666666667
          0.049568965517 0 0 0.06309751434 0.1050295858 0.10367454068
          0.037179487179 0.034360189573 0.10367454068 0.1050295858 0.06309751434 0
          0 0.071294559099 0.15462427746 0.1641025641 0.12296110414 0.11316397229
          0.1641025641 0.15462427746 0.071294559099 0 0 0.082616179002
          0.19359145527 0.25473933649 0.34064665127 0.38930481283 0.25473933649 0.19359145527
          0.082616179002 0 0 0.093690248566 0.24852071006 0.35564304462
          0.41923076923 0.46327014218 0.35564304462 0.24852071006 0.093690248566 0
          0 0.10775862069 0.30833333333 0.39349112426 0.4436416185 0.48598130841
          0.39349112426 0.30833333333 0.10775862069 0 0 0.16292134831
          0.35560344828 0.43021032505 0.44465290807 0.49053356282 0.43021032505 0.35560344828
          0.16292134831 0 0 0.16216216216 0.35324675325 0.42857142857
          0.44469525959 0.48962655602 0.42857142857 0.35324675325 0.16216216216 0
          0.0045248868778 0.0037593984962 0 0 0 0
          0 0 0 0 0 0.025
          0 0 0 0 0 0
          0.025 0 0 0.05023923445 0.068391866913 0.039344262295
          0.012820512821 0.011834319527 0.039344262295 0.068391866913 0.05023923445 0
          0 0.063694267516 0.10819672131 0.10465116279 0.036984352774 0.034120734908
          0.10465116279 0.10819672131 0.063694267516 0 0 0.070981210856
          0.15544871795 0.16500711238 0.12290502793 0.11282051282 0.16500711238 0.15544871795
          0.070981210856 0 0 0.082217973231 0.19378698225 0.25459317585
          0.33974358974 0.38981042654 0.25459317585 0.19378698225 0.082217973231 0
          0 0.093418259023 0.24918032787 0.35610465116 0.41963015647 0.46456692913
          0.35610465116 0.24918032787 0.093418259023 0 0 0.10765550239
          0.30868761553 0.39508196721 0.44391025641 0.48668639053 0.39508196721 0.30868761553
          0.10765550239 0 0 0.1625 0.35645933014 0.43099787686
          0.44467640919 0.4913957935 0.43099787686 0.35645933014 0.1625 0
          0 0.16165413534 0.35446685879 0.42966751918 0.44472361809 0.49078341014
          0.42966751918 0.35446685879 0.16165413534 0 0.025510204082 0.0084745762712
          0 0 0 0 0 0
          0 0 0.0042372881356 0.024647887324 0 0
          0 0 0 0 0.024647887324 0
          0 0.051212938005 0.06875 0.038817005545 0.012635379061 0.011666666667
          0.038817005545 0.06875 0.051212938005 0 0 0.064593301435
          0.10905730129 0.10491803279 0.036858974359 0.034023668639 0.10491803279 0.10905730129
          0.064593301435 0 0 0.070588235294 0.15523465704 0.16506410256
          0.12283464567 0.11271676301 0.16506410256 0.15523465704 0.070588235294 0
          0 0.081896551724 0.19333333333 0.25443786982 0.33959537572 0.38985313752
          0.25443786982 0.19333333333 0.081896551724 0 0 0.093301435407
          0.24768946396 0.35573770492 0.41987179487 0.46449704142 0.35573770492 0.24768946396
          0.093301435407 0 0 0.10781671159 0.30833333333 0.39556377079
          0.4440433213 0.48666666667 0.39556377079 0.30833333333 0.10781671159 0
          0 0.16197183099 0.35579514825 0.43062200957 0.44470588235 0.49137931034
          0.43062200957 0.35579514825 0.16197183099 0 0 0.16101694915
          0.3538961039 0.42939481268 0.4447592068 0.49090909091 0.42939481268 0.3538961039
          0.16101694915 0 0.040268456376 0.011173184358 0.0084745762712 0
          0 0 0 0 0 0.006711409396
          0.011173184358 0.027906976744 0 0 0 0
          0 0 0.027906976744 0 0 0.056338028169
          0.072776280323 0.040669856459 0.014117647059 0.012931034483 0.040669856459 0.072776280323
          0.056338028169 0 0 0.06875 0.11483253589 0.10828025478
          0.0375782881 0.034416826004 0.10828025478 0.11483253589 0.06875 0
          0 0.074303405573 0.16235294118 0.16910229645 0.12371134021 0.11257035647
          0.16910229645 0.16235294118 0.074303405573 0 0 0.084269662921
          0.20043103448 0.25812619503 0.33771106942 0.39242685026 0.25812619503 0.20043103448
          0.084269662921 0 0 0.09375 0.25358851675 0.36093418259
          0.41962421712 0.46845124283 0.36093418259 0.25358851675 0.09375 0
          0 0.10563380282 0.3153638814 0.4019138756 0.44470588235 0.49137931034
          0.4019138756 0.3153638814 0.10563380282 0 0 0.16744186047
          0.36971830986 0.440625 0.44582043344 0.49719101124 0.440625 0.36971830986
          0.16744186047 0 0.006711409396 0.16759776536 0.3686440678 0.44360902256
          0.44981412639 0.5 0.43984962406 0.3686440678 0.17318435754 0.006711409396
          0.024193548387 0.046979865772 0.020408163265 0.0045248868778 0 0
          0 0 0.006711409396 0.016129032258 0.03355704698 0.039106145251
          0.0042372881356 0 0 0 0 0
          0.027932960894 0 0.0051020408163 0.055084745763 0.071428571429 0.040345821326
          0.014164305949 0.012987012987 0.040345821326 0.071428571429 0.055084745763 0
          0 0.067669172932 0.11239193084 0.1074168798 0.037688442211 0.034562211982
          0.1074168798 0.11239193084 0.067669172932 0 0 0.074349442379
          0.16147308782 0.16834170854 0.12376237624 0.11286681716 0.16834170854 0.16147308782
          0.074349442379 0 0 0.084459459459 0.2 0.25806451613
          0.33860045147 0.39211618257 0.25806451613 0.2 0.084459459459 0
          0 0.093984962406 0.25360230548 0.36061381074 0.41959798995 0.46774193548
          0.36061381074 0.25360230548 0.093984962406 0 0 0.10593220339
          0.31493506494 0.40057636888 0.44759206799 0.49090909091 0.40057636888 0.31493506494
          0.10593220339 0 0.006711409396 0.16759776536 0.3686440678 0.43984962406
          0.44981412639 0.5 0.43984962406 0.3686440678 0.16759776536 0.006711409396
          0.024193548387 0.1744966443 0.36734693878 0.44343891403 0.46875 0.5081300813
          0.44343891403 0.36734693878 0.18120805369 0.024193548387
        </DataArray>
        <DataArray type="Float64" Name="Displacement" NumberOfComponents="3" format="ascii" RangeMin="0.3305622293" RangeMax="1.8672868557">
          0.061442997841 1.0511545542 -0.59860190965 -0.024653652033 1.1023578818 -0.50269326019
          -0.085629000227 1.1569943147 -0.41646520158 -0.16284488989 1.2100589783 -0.3335821237
          -0.23027530151 1.2684841604 -0.24269337299 -0.30265913119 1.3217332993 -0.15316982541
          -0.37580393119 1.3770346718 -0.068831256702 -0.45425402406 1.4319414482 0.022691988053
          -0.51318268053 1.4832039487 0.11753528965 -0.61288805385 1.5368903518 0.22142637754
          0.0012449105291 0.86709288287 -0.52969926655 -0.071011675802 0.92065480239 -0.44408462819
          -0.14402963461 0.97666228844 -0.35237229276 -0.21521183769 1.0320609246 -0.26417262331
          -0.28689040811 1.0858036523 -0.17706266138 -0.35757133884 1.139232027 -0.088543543268
          -0.43006195747 1.1944827077 0.00056655558433 -0.50409778203 1.249890401 0.089728354766
          -0.57843624633 1.3044240895 0.17826312173 -0.64728253958 1.3554725872 0.27303989152
          -0.049197160588 0.68717789873 -0.46303784501 -0.12240210456 0.74176858202 -0.37395734945
          -0.19470831076 0.79473844054 -0.28464408102 -0.26834313034 0.84863787902 -0.19692729216
          -0.33977628158 0.90193437746 -0.1085577132 -0.41254513534 0.95771306988 -0.021249216211
          -0.48668021624 1.0112418103 0.068524479677 -0.55947614691 1.0662075669 0.15893679316
          -0.63200809097 1.1222867148 0.24421143511 -0.69943278849 1.1745550604 0.33948517149
          -0.1032152815 0.5039221234 -0.39731285271 -0.17498840882 0.55721594199 -0.30864873027
          -0.24814753731 0.61086393053 -0.22004687936 -0.32080377637 0.66429440894 -0.13095306014
          -0.39309857541 0.72022942369 -0.041872017111 -0.46699105172 0.77539150723 0.045715352976
          -0.53740244992 0.83048090994 0.13549161945 -0.61216667964 0.88444230037 0.22461848018
          -0.68495677133 0.938414152 0.31242263697 -0.75626898771 0.99371866142 0.401784178
          -0.15454300755 0.3223933678 -0.33143872202 -0.22824938975 0.37395141762 -0.24438879533
          -0.30057689016 0.4290700174 -0.1541964235 -0.3734915248 0.48355010087 -0.062010330934
          -0.44705497419 0.5362253195 0.025918281891 -0.52008038683 0.59238783381 0.11329713838
          -0.59253097717 0.64828759985 0.20074615318 -0.66416800598 0.70370734239 0.28938580402
          -0.73661600372 0.75903273571 0.38038799897 -0.80694499734 0.81132805648 0.46977329731
          -0.20698324718 0.13417895172 -0.26850469132 -0.28145629709 0.19254593137 -0.1759525216
          -0.35436917873 0.24565290884 -0.087156948571 -0.42683296931 0.30138834337 0.0016616701742
          -0.49924213611 0.35423132799 0.093365636409 -0.57365336898 0.41271192842 0.17845943363
          -0.64657242528 0.46931577451 0.2678824019 -0.71898712034 0.5213280094 0.35856868333
          -0.79361164197 0.5741661045 0.44366242021 -0.86141716432 0.62793428147 0.53957599656
          -0.25985181234 -0.048840342071 -0.20455173619 -0.33693722627 0.01003877356 -0.10886868547
          -0.40768822123 0.063735299877 -0.022115998441 -0.47926420336 0.11661476491 0.070616059468
          -0.55451567892 0.17134059344 0.1553060696 -0.62805310725 0.2319148137 0.24570499369
          -0.69946523196 0.28468216372 0.33543866478 -0.77051282151 0.34030647006 0.42462941863
          -0.84817505971 0.39449166019 0.51224744531 -0.91507803873 0.44818584241 0.60411631399
          -0.31310687452 -0.23207308148 -0.14078003507 -0.38907578694 -0.17251643571 -0.04367640727
          -0.46168365883 -0.12187196866 0.044352172884 -0.53569533696 -0.067645899392 0.13331081054
          -0.60564891396 -0.014085637484 0.22530618458 -0.6796258551 0.045532271058 0.30767531081
          -0.75397141489 0.103888922 0.40226987835 -0.82709104244 0.15498521062 0.48996675404
          -0.899577708 0.21208370564 0.58022894718 -0.96932442461 0.26650562069 0.66910975454
          -0.37103395941 -0.41161142579 -0.075315532593 -0.44429809054 -0.3594584358 0.018387174504
          -0.51676260195 -0.30576164882 0.10581684081 -0.58955246474 -0.25140552901 0.19647818226
          -0.66403949921 -0.20154045458 0.28401164369 -0.73435609459 -0.12911773226 0.38366113018
          -0.80885951635 -0.077804547429 0.46522777828 -0.87979985242 -0.022516822921 0.55927626237
          -0.95232581664 0.027799626925 0.64624941475 -1.0292895168 0.078793754593 0.73825856265
          -0.42426692936 -0.58677094141 -0.012006974316 -0.4963108035 -0.53964152955 0.084715802294
          -0.56637674012 -0.49267895251 0.16889737658 -0.64077177725 -0.42987494042 0.267218213
          -0.71826086914 -0.38329327855 0.35296587277 -0.79043295485 -0.31109666524 0.44304057045
          -0.86185925525 -0.26176006872 0.53291863759 -0.93316476535 -0.21109569706 0.62295601809
          -1.0152553432 -0.15541115122 0.70505263664 -1.0846358106 -0.11849183641 0.80359281813
          0.14410215208 0.98577220565 -0.7057218904 0.074381656975 1.040495728 -0.62147785103
          -0.0026518820804 1.094862056 -0.52679953061 -0.072805337766 1.1486341404 -0.44028060941
          -0.14504337971 1.2000848785 -0.35262629641 -0.21619118756 1.2569813983 -0.26043807202
          -0.29056799565 1.3107771421 -0.17533160939 -0.3664968009 1.3646029786 -0.084119305455
          -0.43130812205 1.4165788424 0.0023448583309 -0.50198519602 1.4730096508 0.09539752089
          0.095276209089 0.80567395919 -0.63918357122 0.022575175759 0.85721557758 -0.54999496168
          -0.051034359246 0.90949601934 -0.46144187319 -0.12324453675 0.9637467663 -0.37159960053
          -0.19676904037 1.0192624783 -0.28509852706 -0.26969912796 1.0747246867 -0.19611716396
          -0.34334279145 1.1247494882 -0.10920007472 -0.41597006479 1.1828224028 -0.018317763912
          -0.48759715975 1.2373073687 0.07040949845 -0.55711262266 1.2903254051 0.16036363277
          0.039955796304 0.62241133378 -0.57206733153 -0.031471121433 0.67369353474 -0.48484018925
          -0.10519817781 0.72832925746 -0.3948639468 -0.17865682181 0.78305381407 -0.30801986396
          -0.25095231948 0.83861517865 -0.22012425372 -0.32438282268 0.89264799236 -0.13063996603
          -0.39650293502 0.9469392732 -0.041539654759 -0.46882355443 1.0008093929 0.047069868335
          -0.54027071536 1.0553243441 0.13707121685 -0.61457304862 1.1118201079 0.22329808795
          -0.013327361229 0.43832244273 -0.50858977885 -0.086666303985 0.49155342329 -0.4184770454
          -0.15904702916 0.54722931831 -0.33136078546 -0.23200156106 0.59937689388 -0.24016850664
          -0.30378226555 0.65464483539 -0.15171917612 -0.37629726262 0.70953727414 -0.063745177896
          -0.4495556747 0.76427288176 0.025904133553 -0.52226267565 0.82092318239 0.11458933756
          -0.5943068297 0.87308852517 0.2035430695 -0.66911376256 0.92942467952 0.29090940673
          -0.067275559429 0.25622271122 -0.44084632055 -0.13907192969 0.30794585025 -0.35332180191
          -0.21138040415 0.36420001605 -0.26301377115 -0.28437002577 0.41720371153 -0.17400299999
          -0.35740221914 0.47181062095 -0.085518655132 -0.43130450918 0.52661258349 0.0035650681533
          -0.50300037312 0.58215575849 0.093142024111 -0.57512629525 0.63733202952 0.17948965387
          -0.64852565135 0.69259374453 0.27117331514 -0.72129387127 0.74694443472 0.35845305209
          -0.12031558619 0.072305051186 -0.37523075123 -0.19055648771 0.12633393965 -0.28617788125
          -0.26359937302 0.18135441629 -0.19651407677 -0.33819012609 0.23476153492 -0.1074998652
          -0.41198132306 0.28786492057 -0.019124743004 -0.48396419733 0.34879220539 0.071578457175
          -0.55726371368 0.4013044724 0.15927862414 -0.6296724049 0.45436336471 0.24769611792
          -0.70207150315 0.50754613199 0.33874257101 -0.77488257573 0.56502367087 0.42403575783
          -0.17295476002 -0.10547175798 -0.31077216106 -0.2463375754 -0.056896018866 -0.22225037284
          -0.31654740486 -0.0012784513829 -0.13309628652 -0.39061784748 0.052277732965 -0.043350884201
          -0.46497789483 0.10529143929 0.048434828614 -0.53887906401 0.16605051161 0.13731109066
          -0.60927251091 0.22041876145 0.22523707781 -0.68023051592 0.27458798355 0.31353506848
          -0.75417838875 0.32924442763 0.40361595278 -0.82848551658 0.38326774243 0.49174894752
          -0.22666138908 -0.29498114826 -0.24539072242 -0.30019567298 -0.23936692946 -0.15753247785
          -0.37314187816 -0.18664562307 -0.066143920495 -0.44670401916 -0.13429596483 0.023016075128
          -0.51963835594 -0.079739039413 0.11245814512 -0.59187405437 -0.016094823516 0.20271440437
          -0.66416809827 0.036225712839 0.29386272469 -0.73820338374 0.090670727884 0.38123915208
          -0.80962097651 0.14449833035 0.47142673581 -0.88351562245 0.19985786009 0.55858851935
          -0.27701946555 -0.47594741943 -0.18538945861 -0.35243032303 -0.42364901677 -0.091371349027
          -0.4263633467 -0.37062943143 -0.0025727662527 -0.50094243479 -0.31665967327 0.087342123746
          -0.57395324331 -0.26407986381 0.17791281905 -0.64663447316 -0.19890442408 0.26696447938
          -0.71800554599 -0.14545456375 0.35714816257 -0.78943493316 -0.090664491955 0.44823695684
          -0.86306804016 -0.036449153528 0.53857179426 -0.93375320034 0.018819165719 0.62589965318
          -0.33088572578 -0.66329909129 -0.12319392959 -0.40353732851 -0.60620024085 -0.028259205852
          -0.48012019721 -0.55456267563 0.060742674873 -0.55210304207 -0.50019142175 0.15382235977
          -0.62726675797 -0.45351274757 0.24439117642 -0.70009676262 -0.38374099313 0.33455934423
          -0.7707325641 -0.32994589406 0.42091699619 -0.84081008336 -0.27315164753 0.51366676031
          -0.91548915943 -0.21774394102 0.60243937497 -0.98916573755 -0.16928361976 0.69074256991
          0.23638879465 0.92172024271 -0.81749000677 0.16139610302 0.97452107101 -0.72615243356
          0.091645966725 1.028800964 -0.6391102832 0.017522184203 1.086181067 -0.55521014779
          -0.055240689691 1.1365791789 -0.4599765945 -0.12855877464 1.1925126467 -0.37155927555
          -0.19837300617 1.2491826371 -0.28413334157 -0.27289588173 1.3001170986 -0.19462714547
          -0.34566235281 1.3543109687 -0.10840775376 -0.41217830705 1.4108524133 -0.013645887272
          0.18175951839 0.734084852 -0.7511761551 0.11110886125 0.79160410995 -0.660709362
          0.035095497177 0.84549568838 -0.57307775768 -0.035736925114 0.89935213124 -0.48363599411
          -0.10918310119 0.95363662084 -0.39467439159 -0.18200223587 1.0089544854 -0.30603235944
          -0.25302298528 1.0627172247 -0.21743576037 -0.32623010077 1.1170732575 -0.12768969069
          -0.3985526734 1.1709651973 -0.040354158179 -0.46899687401 1.2270957948 0.04857961231
          0.13037328021 0.55419839959 -0.68525428985 0.056857577426 0.60906289905 -0.5968185204
          -0.015682603552 0.66361221045 -0.50569640599 -0.088267577119 0.71678168092 -0.41635352426
          -0.16159891365 0.77142351433 -0.32744075594 -0.23509649498 0.82588787851 -0.23849168377
          -0.30622840925 0.88014601782 -0.15018262118 -0.37913608295 0.93535170688 -0.061564924414
          -0.45178310077 0.99213746174 0.026260760674 -0.52470706079 1.0441703975 0.11708103813
          0.080308560363 0.36951885685 -0.61502791414 0.0033648172182 0.4270290729 -0.52830177228
          -0.069785606594 0.47964860149 -0.43914729158 -0.14270342058 0.53468301079 -0.34956131918
          -0.21466705021 0.58861482317 -0.26147693713 -0.28742727676 0.64372669006 -0.17277508479
          -0.36267707394 0.69821272997 -0.083604599073 -0.43253699818 0.75349474979 0.0059745686804
          -0.50580413923 0.80724181602 0.095230307758 -0.57723464715 0.85797557163 0.18173507056
          0.025322071383 0.18954141208 -0.55148843834 -0.051032194381 0.24430892132 -0.46196588577
          -0.12227268076 0.29758730571 -0.37254745822 -0.19517366587 0.35197748674 -0.28121570672
          -0.26797442626 0.40632873376 -0.19510993266 -0.34111920843 0.46132496084 -0.10635854242
          -0.41447412858 0.51554951905 -0.017692372349 -0.48624069853 0.57086969026 0.072581090798
          -0.55976597631 0.62675756303 0.16073457721 -0.63081889819 0.67866010724 0.25060623406
          -0.028120804093 0.0092120806719 -0.4851072613 -0.10261407123 0.059820643422 -0.39543937384
          -0.1743429495 0.11394386032 -0.3063318322 -0.2477751017 0.16926999506 -0.21637774598
          -0.32256733507 0.2226675693 -0.13031828855 -0.39469601582 0.28213230956 -0.038153046958
          -0.46748191158 0.33387800695 0.048845714132 -0.53913474529 0.38831504541 0.13851179319
          -0.61315738716 0.44348343333 0.22779189043 -0.68590934144 0.49711246011 0.31539769869
          -0.082474737729 -0.17582735342 -0.4209302737 -0.15693145788 -0.12257307548 -0.33104189461
          -0.22880086995 -0.069168591667 -0.24141485785 -0.30230798367 -0.01493809054 -0.15231660925
          -0.37402272025 0.038885140857 -0.063334149756 -0.44678782537 0.099611558399 0.026707236434
          -0.52153038051 0.15397972265 0.11730753537 -0.59305914593 0.20694910221 0.20641231351
          -0.66611444021 0.26196832297 0.29568206004 -0.73837874118 0.31570111164 0.38309395174
          -0.13664975059 -0.36058441591 -0.35510697902 -0.21024909896 -0.30561634784 -0.26608984133
          -0.2776815264 -0.25070799463 -0.17729766896 -0.35387308366 -0.19714090282 -0.086323955063
          -0.43083870089 -0.14382581785 0.0027289261029 -0.50304732436 -0.083668456378 0.09237517646
          -0.57397913969 -0.02873447642 0.18155125319 -0.64549235644 0.02466702087 0.26885701289
          -0.72040161332 0.078998194589 0.36085695136 -0.79341794643 0.13148144459 0.44905159805
          -0.18788458377 -0.54291110901 -0.29150884697 -0.26249031364 -0.48967715226 -0.20169076089
          -0.33608520223 -0.43395231528 -0.10915311223 -0.41016531683 -0.38228188526 -0.0214774092
          -0.48187024274 -0.32662855952 0.069212836909 -0.55593197285 -0.26331971994 0.1563060083
          -0.62888525713 -0.21140047881 0.2473481189 -0.70186075313 -0.15931025112 0.33666089957
          -0.77434991431 -0.10423365102 0.42654856699 -0.8471395481 -0.048252550989 0.51554459258
          -0.24323939319 -0.72556449142 -0.22815609063 -0.31733105679 -0.67492227004 -0.13827972119
          -0.38890280727 -0.61949126295 -0.044785966703 -0.46091947594 -0.56289495568 0.045222758309
          -0.53906154724 -0.51405533019 0.1333913046 -0.60905426282 -0.44998795671 0.22092336017
          -0.68323777454 -0.39511004557 0.31039005832 -0.75535680309 -0.3418701549 0.40357179351
          -0.82646706633 -0.28855395735 0.49323100051 -0.90146268219 -0.23265888525 0.58030835184
          0.3232485742 0.85417364808 -0.92929901363 0.2523544821 0.91084397273 -0.83716854413
          0.18370415763 0.96131431165 -0.74611101483 0.10907975714 1.0173915237 -0.66011934355
          0.0349257212 1.0703658502 -0.56948252574 -0.038573587847 1.1278015335 -0.48211324287
          -0.11000583857 1.1809112843 -0.39298119274 -0.18230954869 1.2329457832 -0.30643289636
          -0.25396773259 1.2888690093 -0.21496236157 -0.3288239575 1.3429859179 -0.12846059442
          0.27557623494 0.67366188485 -0.86006795709 0.20009635459 0.72546332576 -0.77200175606
          0.12593201709 0.77958213079 -0.6824372587 0.053840422059 0.83420767063 -0.59335522835
          -0.019027408696 0.88933711499 -0.50376235744 -0.09182533413 0.94372382989 -0.41487380339
          -0.16384787912 0.99746512341 -0.32473392408 -0.23745597192 1.0517943465 -0.235642347
          -0.30899545384 1.1062066059 -0.14775644047 -0.37923969365 1.1616644145 -0.060849274103
          0.2231685538 0.4895375711 -0.78723924591 0.14594070211 0.54430930234 -0.70548388834
          0.074866059762 0.59797784502 -0.61578391873 0.0017558587851 0.65212571853 -0.52679899497
          -0.071255480554 0.70632415193 -0.43780087541 -0.14465571804 0.76067291042 -0.34868451439
          -0.21702343577 0.81499592064 -0.25987790692 -0.29129771101 0.86965198878 -0.17179471538
          -0.36283868125 0.92526780264 -0.081447150599 -0.43612180708 0.97359472479 0.0046833308243
          0.166710104 0.30636813319 -0.72797491937 0.095094387115 0.36021717373 -0.64054907492
          0.020772455948 0.41533479308 -0.54872457696 -0.052238321951 0.46892750463 -0.46009399545
          -0.12519694124 0.52325238946 -0.37095060389 -0.19815456852 0.57819319577 -0.28229779124
          -0.27057689298 0.63327854341 -0.19316619402 -0.34316795759 0.68783217579 -0.10411974376
          -0.4127747002 0.74315817927 -0.014897999823 -0.48837396265 0.79552645693 0.074085117525
          0.11077544498 0.1217457563 -0.66688095485 0.040348262781 0.17895054424 -0.57342332515
          -0.032316823889 0.23266283384 -0.48260455915 -0.10528700514 0.28638790416 -0.39236650078
          -0.17846610158 0.34040092343 -0.30372864813 -0.25132567283 0.39608250504 -0.21587347017
          -0.32365270926 0.45151960342 -0.12666351982 -0.39729265709 0.50493707574 -0.03826574438
          -0.46949028303 0.56039431301 0.051620895306 -0.5431145327 0.61907015529 0.142842295
          0.060617434789 -0.058768878702 -0.59611558402 -0.013163605549 -0.0050747219735 -0.50758655514