<?xml version="1.0"?>
<VTKFile type="UnstructuredGrid" version="0.1" byte_order="LittleEndian" compressor="vtkZLibDataCompressor">
  <UnstructuredGrid>
    <FieldData>
      <DataArray type="Float64" Name="TIME" NumberOfTuples="1" format="ascii" RangeMin="0.88184340874" RangeMax="0.88184340874">
        0.88184340874
      </DataArray>
    </FieldData>
    <Piece NumberOfPoints="1000" NumberOfCells="0">
      <PointData>
        <DataArray type="Float64" Name="Damage" format="ascii" RangeMin="0" RangeMax="0.50406504065">
          0 0 0 0 0 0
          0 0 0 0 0 0.027932960894
          0 0 0 0 0 0
          0.027932960894 0 0 0.055084745763 0.071428571429 0.040345821326
          0.014164305949 0.012987012987 0.040345821326 0.071428571429 0.055084745763 0
          0 0.067669172932 0.11239193084 0.1074168798 0.037688442211 0.034562211982
          0.1074168798 0.11239193084 0.067669172932 0 0 0.074349442379
          0.16147308782 0.16834170854 0.12376237624 0.11286681716 0.16834170854 0.16147308782
          0.074349442379 0 0 0.084459459459 0.2 0.25806451613
          0.33860045147 0.39211618257 0.25806451613 0.2 0.084459459459 0
          0 0.093984962406 0.25360230548 0.36061381074 0.41959798995 0.46774193548
          0.36061381074 0.25360230548 0.093984962406 0 0 0.10593220339
          0.31493506494 0.40057636888 0.4447592068 0.49090909091 0.40057636888 0.31493506494
          0.10593220339 0 0 0.17318435754 0.3686440678 0.43984962406
          0.44981412639 0.5 0.43984962406 0.3686440678 0.17318435754 0
          0.016129032258 0.18791946309 0.36734693878 0.44343891403 0.46428571429 0.50406504065
          0.44343891403 0.36734693878 0.18791946309 0.008064516129 0 0
          0 0 0 0 0 0
          0 0 0 0.027906976744 0 0
          0 0 0 0 0.027906976744 0
          0 0.056338028169 0.072776280323 0.040669856459 0.014117647059 0.012931034483
          0.040669856459 0.072776280323 0.056338028169 0 0 0.06875
          0.11483253589 0.10828025478 0.0375782881 0.034416826004 0.10828025478 0.11483253589
          0.06875 0 0 0.074303405573 0.16235294118 0.16910229645
          0.12371134021 0.11257035647 0.16910229645 0.16235294118 0.074303405573 0
          0 0.084269662921 0.20043103448 0.25812619503 0.33771106942 0.39242685026
          0.25812619503 0.20043103448 0.084269662921 0 0 0.09375
          0.25358851675 0.36093418259 0.41962421712 0.46845124283 0.36093418259 0.25358851675
          0.09375 0 0 0.10563380282 0.3153638814 0.4019138756
          0.44470588235 0.49137931034 0.4019138756 0.3153638814 0.10563380282 0
          0 0.16744186047 0.36971830986 0.440625 0.44582043344 0.49719101124
          0.440625 0.36971830986 0.16744186047 0 0.013422818792 0.17877094972
          0.3686440678 0.44360902256 0.44981412639 0.49662162162 0.43984962406 0.3686440678
          0.17877094972 0.006711409396 0 0 0 0
          0 0 0 0 0 0
          0 0.024647887324 0 0 0 0
          0 0 0.024647887324 0 0 0.051212938005
          0.06875 0.038817005545 0.012635379061 0.011666666667 0.038817005545 0.06875
          0.051212938005 0 0 0.064593301435 0.10905730129 0.10491803279
          0.036858974359 0.034023668639 0.10491803279 0.10905730129 0.064593301435 0
          0 0.070588235294 0.15523465704 0.16506410256 0.12283464567 0.11271676301
          0.16506410256 0.15523465704 0.070588235294 0 0 0.081896551724
          0.19333333333 0.25443786982 0.33959537572 0.38985313752 0.25443786982 0.19333333333
          0.081896551724 0 0 0.093301435407 0.24768946396 0.35573770492
          0.41987179487 0.46449704142 0.35573770492 0.24768946396 0.093301435407 0
          0 0.10781671159 0.30833333333 0.39556377079 0.4440433213 0.48666666667
          0.39556377079 0.30833333333 0.10781671159 0 0 0.16197183099
          0.35579514825 0.43062200957 0.44470588235 0.49137931034 0.43062200957 0.35579514825
          0.16197183099 0 0 0.16101694915 0.3538961039 0.42939481268
          0.4447592068 0.49090909091 0.42939481268 0.3538961039 0.16101694915 0
          0 0 0 0 0 0
          0 0 0 0 0 0.025
          0 0 0 0 0 0
          0.025 0 0 0.05023923445 0.068391866913 0.039344262295
          0.012820512821 0.011834319527 0.039344262295 0.068391866913 0.05023923445 0
          0 0.063694267516 0.10819672131 0.10465116279 0.036984352774 0.034120734908
          0.10465116279 0.10819672131 0.063694267516 0 0 0.070981210856
          0.15544871795 0.16500711238 0.12290502793 0.11282051282 0.16500711238 0.15544871795
          0.070981210856 0 0 0.082217973231 0.19378698225 0.25459317585
          0.33974358974 0.38981042654 0.25459317585 0.19378698225 0.082217973231 0
          0 0.093418259023 0.24918032787 0.35610465116 0.41963015647 0.46456692913
          0.35610465116 0.24918032787 0.093418259023 0 0 0.10765550239
          0.30868761553 0.39508196721 0.44391025641 0.48668639053 0.39508196721 0.30868761553
          0.10765550239 0 0 0.1625 0.35645933014 0.43099787686
          0.44467640919 0.4913957935 0.43099787686 0.35645933014 0.1625 0
          0 0.16165413534 0.35446685879 0.42966751918 0.44472361809 0.49078341014
          0.42966751918 0.35446685879 0.16165413534 0 0 0
          0 0 0 0 0 0
          0 0 0 0.02786377709 0 0
          0 0 0 0 0.02786377709 0
          0 0.054117647059 0.070397111913 0.040064102564 0.014173228346 0.013005780347
          0.040064102564 0.070397111913 0.054117647059 0 0 0.066805845511
          0.11057692308 0.106685633 0.037709497207 0.034615384615 0.106685633 0.11057692308
          0.066805845511 0 0 0.074226804124 0.16062992126 0.16759776536
          0.12362637363 0.11292346299 0.16759776536 0.16062992126 0.074226804124 0
          0 0.084427767355 0.19942196532 0.25769230769 0.33877038896 0.39145496536
          0.25769230769 0.19942196532 0.084427767355 0 0 0.093945720251
          0.25320512821 0.35988620199 0.41899441341 0.46666666667 0.35988620199 0.25320512821
          0.093945720251 0 0 0.10588235294 0.31407942238 0.39903846154
          0.44409448819 0.48988439306 0.39903846154 0.31407942238 0.10588235294 0
          0 0.16718266254 0.36705882353 0.43841336117 0.44536082474 0.49530956848
          0.43841336117 0.36705882353 0.16718266254 0 0 0.16728624535
          0.36543909348 0.43718592965 0.44554455446 0.49435665914 0.43718592965 0.36543909348
          0.16728624535 0 0 0 0 0
          0 0 0 0 0 0
          0 0.025280898876 0 0 0 0
          0 0 0.025280898876 0 0 0.049568965517
          0.066666666667 0.038461538462 0.013005780347 0.012016021362 0.038461538462 0.066666666667
          0.049568965517 0 0 0.06309751434 0.1050295858 0.10367454068
          0.037179487179 0.034360189573 0.10367454068 0.1050295858 0.06309751434 0
          0 0.071294559099 0.15462427746 0.1641025641 0.12296110414 0.11316397229
          0.1641025641 0.15462427746 0.071294559099 0 0 0.082616179002
          0.19359145527 0.25473933649 0.34064665127 0.38930481283 0.25473933649 0.19359145527
          0.082616179002 0 0 0.093690248566 0.24852071006 0.35564304462
          0.41923076923 0.46327014218 0.35564304462 0.24852071006 0.093690248566 0
          0 0.10775862069 0.30833333333 0.39349112426 0.4436416185 0.48598130841
          0.39349112426 0.30833333333 0.10775862069 0 0 0.16292134831
          0.35560344828 0.43021032505 0.44465290807 0.49053356282 0.43021032505 0.35560344828
          0.16292134831 0 0 0.16216216216 0.35324675325 0.42857142857
          0.44469525959 0.48962655602 0.42857142857 0.35324675325 0.16216216216 0
          0 0 0 0 0 0
          0 0 0 0 0 0.025
          0 0 0 0 0 0
          0.025 0 0 0.05023923445 0.068391866913 0.039344262295
          0.012820512821 0.011834319527 0.039344262295 0.068391866913 0.05023923445 0
          0 0.063694267516 0.10819672131 0.10465116279 0.036984352774 0.034120734908
          0.10465116279 0.10819672131 0.063694267516 0 0 0.070981210856
          0.15544871795 0.16500711238 0.12290502793 0.11282051282 0.16500711238 0.15544871795
          0.070981210856 0 0 0.082217973231 0.19378698225 0.25459317585
          0.33974358974 0.38981042654 0.25459317585 0.19378698225 0.082217973231 0
          0 0.093418259023 0.24918032787 0.35610465116 0.41963015647 0.46456692913
          0.35610465116 0.24918032787 0.093418259023 0 0 0.10765550239
          0.30868761553 0.39508196721 0.44391025641 0.48668639053 0.39508196721 0.30868761553
          0.10765550239 0 0 0.1625 0.35645933014 0.43099787686
          0.44467640919 0.4913957935 0.43099787686 0.35645933014 0.1625 0
          0 0.16165413534 0.35446685879 0.42966751918 0.44472361809 0.49078341014
          0.42966751918 0.35446685879 0.16165413534 0 0 0
          0 0 0 0 0 0
          0 0 0 0.024647887324 0 0
          0 0 0 0 0.024647887324 0
          0 0.051212938005 0.06875 0.038817005545 0.012635379061 0.011666666667
          0.038817005545 0.06875 0.051212938005 0 0 0.064593301435
          0.10905730129 0.10491803279 0.036858974359 0.034023668639 0.10491803279 0.10905730129
          0.064593301435 0 0 0.070588235294 0.15523465704 0.16506410256
          0.12283464567 0.11271676301 0.16506410256 0.15523465704 0.070588235294 0
          0 0.081896551724 0.19333333333 0.25443786982 0.33959537572 0.38985313752
          0.25443786982 0.19333333333 0.081896551724 0 0 0.093301435407
          0.24768946396 0.35573770492 0.41987179487 0.46449704142 0.35573770492 0.24768946396
          0.093301435407 0 0 0.10781671159 0.30833333333 0.39556377079
          0.4440433213 0.48666666667 0.39556377079 0.30833333333 0.10781671159 0
          0 0.16197183099 0.35579514825 0.43062200957 0.44470588235 0.49137931034
          0.43062200957 0.35579514825 0.16197183099 0 0 0.16101694915
          0.3538961039 0.42939481268 0.4447592068 0.49090909091 0.42939481268 0.3538961039
          0.16101694915 0 0 0 0 0
          0 0 0 0 0 0
          0 0.027906976744 0 0 0 0
          0 0 0.027906976744 0 0 0.056338028169
          0.072776280323 0.040669856459 0.014117647059 0.012931034483 0.040669856459 0.072776280323
          0.056338028169 0 0 0.06875 0.11483253589 0.10828025478
          0.0375782881 0.034416826004 0.10828025478 0.11483253589 0.06875 0
          0 0.074303405573 0.16235294118 0.16910229645 0.12371134021 0.11257035647
          0.16910229645 0.16235294118 0.074303405573 0 0 0.084269662921
          0.20043103448 0.25812619503 0.33771106942 0.39242685026 0.25812619503 0.20043103448
          0.084269662921 0 0 0.09375 0.25358851675 0.36093418259
          0.41962421712 0.46845124283 0.36093418259 0.25358851675 0.09375 0
          0 0.10563380282 0.3153638814 0.4019138756 0.44470588235 0.49137931034
          0.4019138756 0.3153638814 0.10563380282 0 0 0.16744186047
          0.36971830986 0.440625 0.44582043344 0.49719101124 0.440625 0.36971830986
          0.16744186047 0 0.006711409396 0.16759776536 0.3686440678 0.43984962406
          0.44609665428 0.49662162162 0.43984962406 0.3686440678 0.17318435754 0.006711409396
          0 0 0 0 0 0
          0 0 0 0 0 0.027932960894
          0 0 0 0 0 0
          0.027932960894 0 0 0.055084745763 0.071428571429 0.040345821326
          0.014164305949 0.012987012987 0.040345821326 0.071428571429 0.055084745763 0
          0 0.067669172932 0.11239193084 0.1074168798 0.037688442211 0.034562211982
          0.1074168798 0.11239193084 0.067669172932 0 0 0.074349442379
          0.16147308782 0.16834170854 0.12376237624 0.11286681716 0.16834170854 0.16147308782
          0.074349442379 0 0 0.084459459459 0.2 0.25806451613
          0.33860045147 0.39211618257 0.25806451613 0.2 0.084459459459 0
          0 0.093984962406 0.25360230548 0.36061381074 0.41959798995 0.46774193548
          0.36061381074 0.25360230548 0.093984962406 0 0 0.10593220339
          0.31493506494 0.40057636888 0.4447592068 0.49090909091 0.40057636888 0.31493506494
          0.10593220339 0 0 0.16759776536 0.3686440678 0.43984962406
          0.44981412639 0.5 0.43984962406 0.3686440678 0.16759776536 0.006711409396
          0.016129032258 0.1744966443 0.36734693878 0.44343891403 0.45535714286 0.50406504065
          0.44343891403 0.36734693878 0.18120805369 0.024193548387
        </DataArray>
        <DataArray type="Float64" Name="Displacement" NumberOfComponents="3" format="ascii" RangeMin="0.1895589778" RangeMax="1.2826204745">
          0.19650525999 0.38470030632 -0.54271437033 0.15896952663 0.4603180942 -0.49963765957
          0.12048947313 0.52857278474 -0.45580515115 0.089074381763 0.59624293098 -0.41223283825
          0.045164200158 0.6714729387 -0.36664493632 0.014450570548 0.73616306374 -0.32242896262
          -0.022686183688 0.80508981799 -0.27840384343 -0.063856999201 0.88327886856 -0.22930174216
          -0.10113066747 0.94928855938 -0.18532408369 -0.13871928004 1.0238477095 -0.13813545696
          0.12719730865 0.29096009359 -0.45988100145 0.094426652665 0.36157225055 -0.41596050278
          0.05525700552 0.436127843 -0.37033891904 0.018528900989 0.50351036607 -0.32578865187
          -0.017440396407 0.57391483753 -0.28156100908 -0.055108264722 0.64316831214 -0.23698950752
          -0.094362120923 0.71559871242 -0.1901177649 -0.13371080962 0.78637867105 -0.14625632852
          -0.16713377966 0.85468626775 -0.10141229351 -0.20495198723 0.92704444103 -0.052486386963
          0.063300029081 0.19630138407 -0.37325839509 0.024203552409 0.27109232138 -0.32867413921
          -0.012697803136 0.34062587975 -0.28376290192 -0.05106932858 0.41168911372 -0.23857455039
          -0.088839795965 0.48198176285 -0.19473121759 -0.12503920192 0.55007300177 -0.1496524836
          -0.16360331946 0.62113157191 -0.10479423674 -0.19964749295 0.69090641567 -0.059406101071
          -0.2394825739 0.76166775376 -0.016551673696 -0.27381464263 0.83048644861 0.028583706068
          -0.0083205913221 0.1039645369 -0.28482610784 -0.044256562465 0.17547302547 -0.24126021292
          -0.081111958025 0.24544611416 -0.19786630406 -0.11909816456 0.31693196114 -0.15383235535
          -0.15663666009 0.38735258292 -0.10814282079 -0.19348047856 0.45760779257 -0.063921708178
          -0.23050093342 0.52773042478 -0.019029728068 -0.2679413433 0.59686487044 0.025298438984
          -0.30733258329 0.66636799225 0.070651173733 -0.34297447447 0.73778097225 0.11820069243
          -0.076351320891 0.012835167623 -0.19955944481 -0.11367278859 0.082146577427 -0.15635285199
          -0.15107800496 0.15203863488 -0.1124889763 -0.18786095899 0.22359028177 -0.068202900071
          -0.22462152454 0.29297846242 -0.022608872602 -0.26301270552 0.36238005889 0.023473451134
          -0.29977011493 0.43411951501 0.065912314314 -0.33616438985 0.50383305714 0.11223325958
          -0.3756890974 0.57404166948 0.15682792789 -0.41360309068 0.64340609609 0.20210318364
          -0.14353227865 -0.080409882865 -0.11393805368 -0.1810646694 -0.011097027811 -0.070098237136
          -0.21836919875 0.058180422091 -0.025403036717 -0.25584555126 0.12925922502 0.017878163991
          -0.29247877416 0.19902364725 0.063189369643 -0.33071952978 0.26747902749 0.10868904153
          -0.36817216799 0.33872298044 0.15265796589 -0.40545182338 0.40854314863 0.19780817353
          -0.44286820325 0.47917539283 0.24277748762 -0.48222402092 0.54919221369 0.28644425594
          -0.2127163565 -0.17430000443 -0.02566595148 -0.24975825552 -0.10497458417 0.017439075917
          -0.2870050115 -0.034067317666 0.05993982414 -0.32396127514 0.034077512803 0.10420055412
          -0.36121699364 0.10617526757 0.14914604006 -0.40065066119 0.17093461384 0.19320717336
          -0.4356255421 0.24480250938 0.23865979725 -0.47420740454 0.31568576086 0.28390809363
          -0.51240026013 0.38435219358 0.32904737504 -0.55053588277 0.45453806334 0.37559461086
          -0.27961224865 -0.2708065048 0.061713693187 -0.31637453209 -0.19875327586 0.10315125478
          -0.35447005135 -0.12898993362 0.14640643733 -0.38933939431 -0.056310263904 0.19131081224
          -0.4263326882 0.011986436484 0.23460799481 -0.46834913876 0.076100324529 0.2789923002
          -0.50703683203 0.14807790043 0.3237278203 -0.54455037398 0.2186686542 0.36885504798
          -0.57955425644 0.29019977202 0.41600245244 -0.61494496068 0.3593350964 0.46153898954
          -0.34863061368 -0.36177885989 0.14441593554 -0.38391709414 -0.28688567351 0.18966071087
          -0.42084074496 -0.22042483948 0.23017046784 -0.45676897434 -0.14946750577 0.27567894918
          -0.49763298268 -0.081492537227 0.32029154735 -0.5359659636 -0.013344409075 0.36993022521
          -0.57345803734 0.055954923012 0.40867887453 -0.61131041531 0.12727868819 0.45322387975
          -0.65354287589 0.19760316918 0.4942831311 -0.68969944978 0.26828918613 0.53864226596
          -0.41476872487 -0.45992767744 0.23711703891 -0.44978878706 -0.38032647775 0.275154986
          -0.49002590446 -0.31952590094 0.32269323139 -0.52887347985 -0.24413232279 0.36046821158
          -0.54872223845 -0.17268863055 0.40850339691 -0.60305499968 -0.10954676713 0.4471826471
          -0.63679665598 -0.032650679718 0.49889528571 -0.67828088023 0.031713463276 0.54653137501
          -0.71846980801 0.10019543714 0.58504380013 -0.74825263247 0.1712691346 0.63331372305
          0.2447547532 0.30747638783 -0.60040968969 0.20916675208 0.37407690679 -0.55696994975
          0.172530323 0.44194110501 -0.51318914716 0.13451230513 0.51244207473 -0.46781165048
          0.095978291763 0.5843822379 -0.42356392226 0.058479127808 0.65527750961 -0.37855716877
          0.022238957772 0.72377005928 -0.33256162032 -0.013565090715 0.79292744037 -0.28797364674
          -0.053047412482 0.86488982393 -0.24403786698 -0.091470194758 0.93720053103 -0.19742997823
          0.17959886743 0.21218738394 -0.51775923753 0.1405133933 0.2818358337 -0.46963079808
          0.1021639072 0.35093876935 -0.42598921284 0.064859330729 0.42065147316 -0.38184291885
          0.027345221561 0.49068189306 -0.33699931695 -0.0098082304289 0.56013323473 -0.29287956742
          -0.046685143524 0.63131154875 -0.24781536532 -0.085251903426 0.7010322144 -0.20284833382
          -0.12156687576 0.76955701042 -0.15933007333 -0.1619230819 0.84133015374 -0.11773279019
          0.11013499248 0.11675369896 -0.43001811702 0.071708930072 0.18688559003 -0.38458007002
          0.033517207756 0.25673145933 -0.34045383726 -0.0035134636234 0.32596416318 -0.29563995884
          -0.041181164369 0.39637542 -0.25135720101 -0.078070298593 0.46715062268 -0.2061720379
          -0.11553430486 0.53699687042 -0.16181728848 -0.15338884476 0.60708957196 -0.11681772496
          -0.19104316747 0.67674049435 -0.072513935519 -0.22810480849 0.74529989348 -0.029031417156
          0.040928655732 0.022871128527 -0.34307460326 0.0028345085571 0.092765974644 -0.29840717244
          -0.034860043224 0.16303136741 -0.25406895777 -0.071989850869 0.23259274145 -0.20960434844
          -0.1089939264 0.30297500353 -0.16573740913 -0.14639390921 0.37303928345 -0.12081202743
          -0.18402184819 0.44344789469 -0.075136794215 -0.22288447667 0.51269749118 -0.031246595372
          -0.25978849441 0.58314036612 0.013779729014 -0.29810694648 0.65308453814 0.056816714323
          -0.028722415857 -0.070816233497 -0.2563250229 -0.065431679161 -0.00083018879635 -0.21215533853
          -0.10277905078 0.068620278106 -0.16797764107 -0.1403236233 0.13793430091 -0.12413261802
          -0.17737048154 0.20874096579 -0.079611560172 -0.2146573942 0.27837368841 -0.034258771955
          -0.25227685509 0.34918992412 0.010383131843 -0.28999978958 0.41845500649 0.054521946312
          -0.32837730433 0.48859039878 0.09989014082 -0.36710498981 0.55892671014 0.14238367372
          -0.096212267263 -0.16687557515 -0.17045852285 -0.13361579941 -0.095483230095 -0.12573271777
          -0.17107826349 -0.025187104877 -0.081683751313 -0.20819226659 0.044237935856 -0.03759034299
          -0.24526521233 0.11478168099 0.0067766565895 -0.28353684701 0.18398135476 0.051606905911
          -0.32073528472 0.25456647239 0.096553304707 -0.35919014314 0.32448033286 0.14126339712
          -0.39643682592 0.394899793 0.18611614293 -0.43380194436 0.46433697445 0.23095188427
          -0.16509944088 -0.25937208538 -0.083809884576 -0.20261670728 -0.18874334067 -0.040318479103
          -0.23972491535 -0.1195879458 0.0043972052341 -0.27711930606 -0.049294134689 0.047542350923
          -0.31289400289 0.020865784797 0.092091533662 -0.35115466417 0.090649485633 0.13745934287
          -0.38844393302 0.16110622537 0.18249131223 -0.42627204733 0.23035299774 0.22789685582
          -0.46409581692 0.30069503986 0.27193865654 -0.50203374687 0.37052860146 0.31641696014
          -0.23279530153 -0.35066212668 0.0038577687703 -0.26980332289 -0.28215176159 0.047684405145
          -0.3061605184 -0.21273120378 0.09171661598 -0.34384309734 -0.14278073493 0.13433766248
          -0.38035373015 -0.072197342888 0.17715660684 -0.41984535963 -0.0043756977285 0.22240244238
          -0.45732682429 0.066160627903 0.26774150075 -0.49576667757 0.13509696202 0.31372034343
          -0.53326967682 0.20568871631 0.35805463132 -0.57260207819 0.2760994808 0.40169165841
          -0.30048288303 -0.44410686993 0.091665981195 -0.33626886868 -0.37428684795 0.13642112799
          -0.3725420675 -0.30447347693 0.17704924169 -0.40945807073 -0.23447857732 0.22100558917
          -0.44476457941 -0.16507922737 0.26435935294 -0.48838280065 -0.10018772782 0.3080842878
          -0.52725440032 -0.029672069765 0.35294605868 -0.56432883442 0.040442789064 0.39837598427
          -0.60210211838 0.11059168271 0.44459995559 -0.63844778609 0.18113278805 0.49043102603
          -0.36614891478 -0.54478147794 0.17091872874 -0.40366568678 -0.46740412862 0.21902438774
          -0.43946360047 -0.39649723885 0.26476080322 -0.47247360846 -0.32769353892 0.30857296362
          -0.51075574951 -0.25734545615 0.35127600629 -0.55879775073 -0.1946281429 0.3934189982
          -0.59487744832 -0.12617568135 0.44059864797 -0.63266555032 -0.052972217863 0.48562926687
          -0.66635463969 0.020190974288 0.52719764707 -0.69506867642 0.091126926535 0.57453612674
          0.29203874605 0.21904439325 -0.65765119556 0.25407762196 0.29037080957 -0.61476964826
          0.21723433392 0.36130433867 -0.56941216947 0.18024011699 0.43093267235 -0.52334529323
          0.14166693713 0.5017012249 -0.47925601534 0.10451268171 0.57258227075 -0.43405531802
          0.067746502238 0.6398454885 -0.39007202505 0.029655885588 0.70909054934 -0.34646968158
          -0.0058172167755 0.78218842649 -0.3007776514 -0.04493466182 0.8520383583 -0.25610856115
          0.22362462452 0.12655548702 -0.57222568928 0.18597332086 0.19513507222 -0.5268404193
          0.14935884389 0.2651920298 -0.48312270613 0.11146558816 0.33590443646 -0.43810057004
          0.074700532463 0.40593797729 -0.39394410148 0.037803392188 0.47619213098 -0.34914129286
          2.5370029959e-05 0.54673823439 -0.30359539478 -0.036592319195 0.61588858195 -0.25943859632
          -0.074710102437 0.68693105272 -0.21406739962 -0.1132351513 0.75818376684 -0.16953128699
          0.15637047981 0.032060381938 -0.48699467364 0.11850040292 0.10128397256 -0.44098666335
          0.080785888691 0.17215632522 -0.39664278472 0.043787094248 0.24194845981 -0.35263557615
          0.0066311077776 0.31228870274 -0.30815872538 -0.03091932294 0.38242920547 -0.263282616
          -0.068214884733 0.45268285255 -0.21853063138 -0.106128923 0.52268460849 -0.17325539554
          -0.14345671963 0.5924893047 -0.12836913899 -0.18016987291 0.6622731536 -0.084492363577
          0.086454864819 -0.063072526409 -0.39958438511 0.049616697486 0.0077870558685 -0.3560526004
          0.012800580433 0.077678131977 -0.31103184207 -0.024738895146 0.14865842145 -0.26614054926
          -0.061690527702 0.21828935527 -0.22220391998 -0.099162867487 0.28843840842 -0.17735305774
          -0.13720732126 0.35838757472 -0.13227029238 -0.17435617296 0.42830315569 -0.087618176119
          -0.21146386817 0.49881214818 -0.04314604177 -0.24833815852 0.56914342031 0.0030790296066
          0.018686095607 -0.15714611354 -0.31338003416 -0.017879226035 -0.086014385974 -0.26849129717
          -0.05534606319 -0.01601551095 -0.22466340503 -0.092815369077 0.053765501935 -0.18086437085
          -0.13006115959 0.1241176554 -0.13686391383 -0.16778492441 0.19422312179 -0.090993651414
          -0.20425044794 0.26452232358 -0.046568421335 -0.24243355539 0.33403697296 -0.0014108515088
          -0.28002858457 0.40371989959 0.043552142844 -0.31637506917 0.47447650069 0.088476263111
          -0.049772020774 -0.24848154438 -0.22606170116 -0.086129910923 -0.17980498439 -0.18236956512
          -0.12373139304 -0.10977370673 -0.13887800531 -0.1610976658 -0.040529556978 -0.09483448894
          -0.19758733959 0.030413761219 -0.05001430631 -0.23579828128 0.10001290147 -0.0050545777818
          -0.27290837729 0.17023248082 0.039616453654 -0.3108774039 0.2399578915 0.084504593971
          -0.34855677663 0.30944818939 0.12947181676 -0.38776258629 0.38075368184 0.17387608662
          -0.11717972851 -0.34345970554 -0.14002659048 -0.15449003862 -0.27355609673 -0.096427535166
          -0.19150916749 -0.20399919064 -0.052506417138 -0.22796301434 -0.13365945765 -0.0078312548068
          -0.26590631196 -0.06292631924 0.035835789387 -0.30461589664 0.0058819178527 0.080908513029
          -0.34162786531 0.075162039587 0.12579171268 -0.37931797342 0.1454680562 0.17041005407
          -0.41709106667 0.2154828135 0.21514237143 -0.45454397736 0.28582486817 0.26024651125
          -0.18548113587 -0.43846485202 -0.052521303847 -0.22214245248 -0.3662855354 -0.0092771324272
          -0.25857209276 -0.29745867147 0.033576934886 -0.2948056038 -0.22667980132 0.079525376131
          -0.33206834515 -0.15665175741 0.12213529981 -0.37254697431 -0.088994395827 0.16636091355
          -0.41125726416 -0.02023680434 0.21114940622 -0.44683595082 0.050906516803 0.2559550052
          -0.48678820542 0.12133888404 0.30117295462 -0.5223026791 0.19105637158 0.34776790304
          -0.25233270314 -0.52923748927 0.03353597694 -0.28971978211 -0.459760805 0.078397853726
          -0.32681334191 -0.39070060114 0.12137192102 -0.36258350167 -0.31952099101 0.16413386521
          -0.3992863544 -0.25025515529 0.20813073133 -0.44123457081 -0.18443361053 0.25275126154
          -0.47892794416 -0.11325094458 0.29668720177 -0.51633868162 -0.04289315527 0.34220585619
          -0.5552673393 0.026269536052 0.38780357945 -0.59256017485 0.096794634963 0.43138517931
          -0.32008789094 -0.62637333954 0.11874316802 -0.35616614909 -0.55077323595 0.16408947298
          -0.39311788498 -0.48163260571 0.20680739212 -0.4277616533 -0.41032542511 0.24914951053
          -0.46872187549 -0.3436951081 0.29598578004 -0.51071975603 -0.27822268975 0.33786279543
          -0.54884216213 -0.20792611577 0.37945136664 -0.58558510657 -0.13696550157 0.4266052686
          -0.62307357544 -0.067241216551 0.47214326083 -0.655887599 0.0027524355158 0.51836355291
          0.34304507988 0.1386556207 -0.71565196496 0.30413975839 0.20673692183 -0.66975445808
          0.26528009048 0.27575932421 -0.625757422 0.22802167773 0.34611357377 -0.58168191703
          0.18987286927 0.41591120713 -0.53709942867 0.15338736931 0.48615593817 -0.49198414689
          0.11601224831 0.55661691427 -0.4472580344 0.078689323146 0.62571327259 -0.40211879586
          0.040067643121 0.69681305188 -0.35670988472 0.0033872898945 0.76149417656 -0.31648585775
          0.26911181346 0.041484054005 -0.62814739489 0.2339007801 0.11158200496 -0.58453567377
          0.1965584818 0.18196989468 -0.53968334838 0.15933807297 0.25212019866 -0.49496964412
          0.12225825298 0.32191290573 -0.45061835614 0.085280543653 0.39161814862 -0.40608822746
          0.047663112233 0.46178435076 -0.36079050926 0.0093957970489 0.53233268512 -0.31663916475
          -0.027698833699 0.60240957828 -0.27186980801 -0.064477452919 0.67321933827 -0.22424501424
          0.20174285162 -0.052862269496 -0.54323036029 0.16521904143 0.017203978986 -0.49785454887
          0.12839567685 0.08669767504 -0.45390993706 0.09092637811 0.15777666043 -0.40913991216
          0.053884860014 0.2276745371 -0.36469491545 0.016645988187 0.29787667776 -0.3199626353
          -0.020799676135 0.36808139386 -0.2752335778 -0.057702033288 0.43799525731 -0.2297905598
          -0.096069574612 0.50846014816 -0.18474114012 -0.13287881187 0.57866304209 -0.14036798126
          0.13429931114 -0.14683643285 -0.45613664641 0.096337983843 -0.076458507951 -0.41159375845
          0.060114989338 -0.0064207684108 -0.36756301773 0.022697968003 0.063519251225 -0.323254946
          -0.014242863897 0.13366777396 -0.27881774796 -0.051572579479 0.20384795616 -0.23406297805
          -0.089312385177 0.273826505 -0.18907534206 -0.12738799271 0.3437096595 -0.14443414596
          -0.16484342953 0.41466617165 -0.098890081017 -0.20180547297 0.4837847894 -0.054214822437
          0.06646237689 -0.23989301267 -0.36910232675 0.028989115943 -0.17051672201 -0.32574795211
          -0.0080350146686 -0.10085401711 -0.28178033317 -0.04526226801 -0.030145011307 -0.23655606872
          -0.082549411491 0.039780781094 -0.19283634139 -0.11990905797 0.10975148303 -0.14803463569
          -0.15794783739 0.17921293533 -0.10295523089 -0.19498923453 0.24952475359 -0.058399418777
          -0.232650431 0.31938920206 -0.013566436343 -0.27104140794 0.38939823478 0.031501970237
          -0.0020496333593 -0.33444413876 -0.28356469617 -0.038493770023 -0.26359938487 -0.23898994443
          -0.076032314728 -0.19425037946 -0.19532303744 -0.11337805334 -0.12460388908 -0.15112322544
          -0.15028112428 -0.054394946111 -0.10676452849 -0.18844851118 0.015133271238 -0.062209641028
          -0.22564455743 0.08558357899 -0.017191899069 -0.2635376648 0.15521034562 0.02764561445
          -0.30177182076 0.22510614 0.072230864879 -0.33907911543 0.29569077783 0.11742249561