<?xml version="1.0"?>
<VTKFile type="UnstructuredGrid" version="0.1" byte_order="LittleEndian" compressor="vtkZLibDataCompressor">
  <UnstructuredGrid>
    <FieldData>
      <DataArray type="Float64" Name="TIME" NumberOfTuples="1" format="ascii" RangeMin="1.0429492981" RangeMax="1.0429492981">
        1.0429492981
      </DataArray>
    </FieldData>
    <Piece NumberOfPoints="1000" NumberOfCells="0">
      <PointData>
        <DataArray type="Float64" Name="Damage" format="ascii" RangeMin="0" RangeMax="0.5081300813">
          0 0 0 0 0 0
          0 0 0 0 0 0.027932960894
          0 0 0 0 0 0
          0.027932960894 0 0 0.055084745763 0.071428571429 0.040345821326
          0.014164305949 0.012987012987 0.040345821326 0.071428571429 0.055084745763 0
          0 0.067669172932 0.11239193084 0.1074168798 0.037688442211 0.034562211982
          0.1074168798 0.11239193084 0.067669172932 0 0 0.074349442379
          0.16147308782 0.16834170854 0.12376237624 0.11286681716 0.16834170854 0.16147308782
          0.074349442379 0 0 0.084459459459 0.2 0.25806451613
          0.33860045147 0.39211618257 0.25806451613 0.2 0.084459459459 0
          0 0.093984962406 0.25360230548 0.36061381074 0.41959798995 0.46774193548
          0.36061381074 0.25360230548 0.093984962406 0 0 0.10593220339
          0.31493506494 0.40057636888 0.4447592068 0.49090909091 0.40057636888 0.31493506494
          0.10593220339 0 0 0.17318435754 0.3686440678 0.43984962406
          0.44981412639 0.5 0.43984962406 0.3686440678 0.17318435754 0.006711409396
          0.016129032258 0.18791946309 0.36734693878 0.44343891403 0.46428571429 0.5081300813
          0.44343891403 0.36734693878 0.18791946309 0.016129032258 0 0
          0 0 0 0 0 0
          0 0 0 0.027906976744 0 0
          0 0 0 0 0.027906976744 0
          0 0.056338028169 0.072776280323 0.040669856459 0.014117647059 0.012931034483
          0.040669856459 0.072776280323 0.056338028169 0 0 0.06875
          0.11483253589 0.10828025478 0.0375782881 0.034416826004 0.10828025478 0.11483253589
          0.06875 0 0 0.074303405573 0.16235294118 0.16910229645
          0.12371134021 0.11257035647 0.16910229645 0.16235294118 0.074303405573 0
          0 0.084269662921 0.20043103448 0.25812619503 0.33771106942 0.39242685026
          0.25812619503 0.20043103448 0.084269662921 0 0 0.09375
          0.25358851675 0.36093418259 0.41962421712 0.46845124283 0.36093418259 0.25358851675
          0.09375 0 0 0.10563380282 0.3153638814 0.4019138756
          0.44470588235 0.49137931034 0.4019138756 0.3153638814 0.10563380282 0
          0 0.16744186047 0.36971830986 0.440625 0.44582043344 0.49719101124
          0.440625 0.36971830986 0.16744186047 0 0.013422818792 0.17877094972
          0.3686440678 0.44360902256 0.44981412639 0.5 0.43984962406 0.3686440678
          0.17877094972 0.006711409396 0 0 0 0
          0 0 0 0 0 0
          0 0.024647887324 0 0 0 0
          0 0 0.024647887324 0 0 0.051212938005
          0.06875 0.038817005545 0.012635379061 0.011666666667 0.038817005545 0.06875
          0.051212938005 0 0 0.064593301435 0.10905730129 0.10491803279
          0.036858974359 0.034023668639 0.10491803279 0.10905730129 0.064593301435 0
          0 0.070588235294 0.15523465704 0.16506410256 0.12283464567 0.11271676301
          0.16506410256 0.15523465704 0.070588235294 0 0 0.081896551724
          0.19333333333 0.25443786982 0.33959537572 0.38985313752 0.25443786982 0.19333333333
          0.081896551724 0 0 0.093301435407 0.24768946396 0.35573770492
          0.41987179487 0.46449704142 0.35573770492 0.24768946396 0.093301435407 0
          0 0.10781671159 0.30833333333 0.39556377079 0.4440433213 0.48666666667
          0.39556377079 0.30833333333 0.10781671159 0 0 0.16197183099
          0.35579514825 0.43062200957 0.44470588235 0.49137931034 0.43062200957 0.35579514825
          0.16197183099 0 0 0.16101694915 0.3538961039 0.42939481268
          0.4447592068 0.49090909091 0.42939481268 0.3538961039 0.16101694915 0
          0 0 0 0 0 0
          0 0 0 0 0 0.025
          0 0 0 0 0 0
          0.025 0 0 0.05023923445 0.068391866913 0.039344262295
          0.012820512821 0.011834319527 0.039344262295 0.068391866913 0.05023923445 0
          0 0.063694267516 0.10819672131 0.10465116279 0.036984352774 0.034120734908
          0.10465116279 0.10819672131 0.063694267516 0 0 0.070981210856
          0.15544871795 0.16500711238 0.12290502793 0.11282051282 0.16500711238 0.15544871795
          0.070981210856 0 0 0.082217973231 0.19378698225 0.25459317585
          0.33974358974 0.38981042654 0.25459317585 0.19378698225 0.082217973231 0
          0 0.093418259023 0.24918032787 0.35610465116 0.41963015647 0.46456692913
          0.35610465116 0.24918032787 0.093418259023 0 0 0.10765550239
          0.30868761553 0.39508196721 0.44391025641 0.48668639053 0.39508196721 0.30868761553
          0.10765550239 0 0 0.1625 0.35645933014 0.43099787686
          0.44467640919 0.4913957935 0.43099787686 0.35645933014 0.1625 0
          0 0.16165413534 0.35446685879 0.42966751918 0.44472361809 0.49078341014
          0.42966751918 0.35446685879 0.16165413534 0 0 0
          0 0 0 0 0 0
          0 0 0 0.02786377709 0 0
          0 0 0 0 0.02786377709 0
          0 0.054117647059 0.070397111913 0.040064102564 0.014173228346 0.013005780347
          0.040064102564 0.070397111913 0.054117647059 0 0 0.066805845511
          0.11057692308 0.106685633 0.037709497207 0.034615384615 0.106685633 0.11057692308
          0.066805845511 0 0 0.074226804124 0.16062992126 0.16759776536
          0.12362637363 0.11292346299 0.16759776536 0.16062992126 0.074226804124 0
          0 0.084427767355 0.19942196532 0.25769230769 0.33877038896 0.39145496536
          0.25769230769 0.19942196532 0.084427767355 0 0 0.093945720251
          0.25320512821 0.35988620199 0.41899441341 0.46666666667 0.35988620199 0.25320512821
          0.093945720251 0 0 0.10588235294 0.31407942238 0.39903846154
          0.44409448819 0.48988439306 0.39903846154 0.31407942238 0.10588235294 0
          0 0.16718266254 0.36705882353 0.43841336117 0.44536082474 0.49530956848
          0.43841336117 0.36705882353 0.16718266254 0 0 0.16728624535
          0.36543909348 0.43718592965 0.44554455446 0.49435665914 0.43718592965 0.36543909348
          0.16728624535 0 0 0 0 0
          0 0 0 0 0 0
          0 0.025280898876 0 0 0 0
          0 0 0.025280898876 0 0 0.049568965517
          0.066666666667 0.038461538462 0.013005780347 0.012016021362 0.038461538462 0.066666666667
          0.049568965517 0 0 0.06309751434 0.1050295858 0.10367454068
          0.037179487179 0.034360189573 0.10367454068 0.1050295858 0.06309751434 0
          0 0.071294559099 0.15462427746 0.1641025641 0.12296110414 0.11316397229
          0.1641025641 0.15462427746 0.071294559099 0 0 0.082616179002
          0.19359145527 0.25473933649 0.34064665127 0.38930481283 0.25473933649 0.19359145527
          0.082616179002 0 0 0.093690248566 0.24852071006 0.35564304462
          0.41923076923 0.46327014218 0.35564304462 0.24852071006 0.093690248566 0
          0 0.10775862069 0.30833333333 0.39349112426 0.4436416185 0.48598130841
          0.39349112426 0.30833333333 0.10775862069 0 0 0.16292134831
          0.35560344828 0.43021032505 0.44465290807 0.49053356282 0.43021032505 0.35560344828
          0.16292134831 0 0 0.16216216216 0.35324675325 0.42857142857
          0.44469525959 0.48962655602 0.42857142857 0.35324675325 0.16216216216 0
          0 0 0 0 0 0
          0 0 0 0 0 0.025
          0 0 0 0 0 0
          0.025 0 0 0.05023923445 0.068391866913 0.039344262295
          0.012820512821 0.011834319527 0.039344262295 0.068391866913 0.05023923445 0
          0 0.063694267516 0.10819672131 0.10465116279 0.036984352774 0.034120734908
          0.10465116279 0.10819672131 0.063694267516 0 0 0.070981210856
          0.15544871795 0.16500711238 0.12290502793 0.11282051282 0.16500711238 0.15544871795
          0.070981210856 0 0 0.082217973231 0.19378698225 0.25459317585
          0.33974358974 0.38981042654 0.25459317585 0.19378698225 0.082217973231 0
          0 0.093418259023 0.24918032787 0.35610465116 0.41963015647 0.46456692913
          0.35610465116 0.24918032787 0.093418259023 0 0 0.10765550239
          0.30868761553 0.39508196721 0.44391025641 0.48668639053 0.39508196721 0.30868761553
          0.10765550239 0 0 0.1625 0.35645933014 0.43099787686
          0.44467640919 0.4913957935 0.43099787686 0.35645933014 0.1625 0
          0 0.16165413534 0.35446685879 0.42966751918 0.44472361809 0.49078341014
          0.42966751918 0.35446685879 0.16165413534 0 0 0
          0 0 0 0 0 0
          0 0 0 0.024647887324 0 0
          0 0 0 0 0.024647887324 0
          0 0.051212938005 0.06875 0.038817005545 0.012635379061 0.011666666667
          0.038817005545 0.06875 0.051212938005 0 0 0.064593301435
          0.10905730129 0.10491803279 0.036858974359 0.034023668639 0.10491803279 0.10905730129
          0.064593301435 0 0 0.070588235294 0.15523465704 0.16506410256
          0.12283464567 0.11271676301 0.16506410256 0.15523465704 0.070588235294 0
          0 0.081896551724 0.19333333333 0.25443786982 0.33959537572 0.38985313752
          0.25443786982 0.19333333333 0.081896551724 0 0 0.093301435407
          0.24768946396 0.35573770492 0.41987179487 0.46449704142 0.35573770492 0.24768946396
          0.093301435407 0 0 0.10781671159 0.30833333333 0.39556377079
          0.4440433213 0.48666666667 0.39556377079 0.30833333333 0.10781671159 0
          0 0.16197183099 0.35579514825 0.43062200957 0.44470588235 0.49137931034
          0.43062200957 0.35579514825 0.16197183099 0 0 0.16101694915
          0.3538961039 0.42939481268 0.4447592068 0.49090909091 0.42939481268 0.3538961039
          0.16101694915 0 0 0 0 0
          0 0 0 0 0 0
          0 0.027906976744 0 0 0 0
          0 0 0.027906976744 0 0 0.056338028169
          0.072776280323 0.040669856459 0.014117647059 0.012931034483 0.040669856459 0.072776280323
          0.056338028169 0 0 0.06875 0.11483253589 0.10828025478
          0.0375782881 0.034416826004 0.10828025478 0.11483253589 0.06875 0
          0 0.074303405573 0.16235294118 0.16910229645 0.12371134021 0.11257035647
          0.16910229645 0.16235294118 0.074303405573 0 0 0.084269662921
          0.20043103448 0.25812619503 0.33771106942 0.39242685026 0.25812619503 0.20043103448
          0.084269662921 0 0 0.09375 0.25358851675 0.36093418259
          0.41962421712 0.46845124283 0.36093418259 0.25358851675 0.09375 0
          0 0.10563380282 0.3153638814 0.4019138756 0.44470588235 0.49137931034
          0.4019138756 0.3153638814 0.10563380282 0 0 0.16744186047
          0.36971830986 0.440625 0.44582043344 0.49719101124 0.440625 0.36971830986
          0.16744186047 0 0.006711409396 0.16759776536 0.3686440678 0.43984962406
          0.44609665428 0.49662162162 0.43984962406 0.3686440678 0.17318435754 0.006711409396
          0 0 0 0 0 0
          0 0 0 0 0 0.027932960894
          0 0 0 0 0 0
          0.027932960894 0 0 0.055084745763 0.071428571429 0.040345821326
          0.014164305949 0.012987012987 0.040345821326 0.071428571429 0.055084745763 0
          0 0.067669172932 0.11239193084 0.1074168798 0.037688442211 0.034562211982
          0.1074168798 0.11239193084 0.067669172932 0 0 0.074349442379
          0.16147308782 0.16834170854 0.12376237624 0.11286681716 0.16834170854 0.16147308782
          0.074349442379 0 0 0.084459459459 0.2 0.25806451613
          0.33860045147 0.39211618257 0.25806451613 0.2 0.084459459459 0
          0 0.093984962406 0.25360230548 0.36061381074 0.41959798995 0.46774193548
          0.36061381074 0.25360230548 0.093984962406 0 0 0.10593220339
          0.31493506494 0.40057636888 0.4447592068 0.49090909091 0.40057636888 0.31493506494
          0.10593220339 0 0 0.16759776536 0.3686440678 0.43984962406
          0.44981412639 0.5 0.43984962406 0.3686440678 0.16759776536 0.006711409396
          0.016129032258 0.1744966443 0.36734693878 0.44343891403 0.45535714286 0.50406504065
          0.44343891403 0.36734693878 0.18120805369 0.024193548387
        </DataArray>
        <DataArray type="Float64" Name="Displacement" NumberOfComponents="3" format="ascii" RangeMin="0.30770700095" RangeMax="2.6353071963">
          0.043656048148 2.076166295 -0.427065884 -0.032004275467 2.1246257551 -0.33490206777
          -0.096172574642 2.1755561671 -0.24743827965 -0.18135089314 2.224086106 -0.15224876227
          -0.24567299034 2.2771025065 -0.065277986837 -0.33407521325 2.3234853978 0.033687680887
          -0.40587353989 2.3737614293 0.12285457236 -0.47946166998 2.4218715813 0.21554388206
          -0.56357686349 2.4740877338 0.31048554673 -0.64378461789 2.5216727192 0.41418846231
          0.0039699924093 1.8795642548 -0.37148665027 -0.074287191972 1.9306602261 -0.27925035148
          -0.15153425861 1.982492653 -0.18474709393 -0.2279932957 2.0322410826 -0.093113886267
          -0.30328953519 2.0813196139 0.00063949950543 -0.37994157439 2.1321878007 0.094614854314
          -0.45868859277 2.1814831534 0.18938504367 -0.53344304461 2.2318060524 0.28036719193
          -0.60838797436 2.2812158815 0.37341027318 -0.67859184909 2.3307682396 0.46419811093
          -0.044895263615 1.6909963483 -0.31068401761 -0.12144697642 1.7411480271 -0.21858868918
          -0.19809509725 1.7927928805 -0.12323094868 -0.27301177864 1.8410857926 -0.032150062283
          -0.34988742416 1.8901214902 0.061018902573 -0.42387253106 1.9423393803 0.15226734776
          -0.50233544078 1.9911669817 0.24689233265 -0.57977832329 2.0408356657 0.33888719945
          -0.6549377076 2.0899332073 0.43369102632 -0.72888031241 2.139554527 0.52750293776
          -0.09051423546 1.5016504295 -0.25005319536 -0.16737509117 1.5499394685 -0.1558689993
          -0.24468480846 1.6007666757 -0.062270754894 -0.32001005862 1.6494783346 0.028679709086
          -0.39806188607 1.6981858995 0.12207766417 -0.4733090548 1.7490771821 0.21429438404
          -0.5502549642 1.7978028294 0.30762754911 -0.6273415597 1.8475776807 0.39936608348
          -0.70316963457 1.8978694423 0.49363269719 -0.77596553832 1.9494368217 0.58543002857
          -0.13887460667 1.3073178407 -0.19145543217 -0.21511320831 1.3579435381 -0.095811755716
          -0.29138401779 1.4082465365 -0.0023450735969 -0.36762343883 1.4577944691 0.088847198787
          -0.44427906313 1.5076232329 0.18316872332 -0.52022581037 1.5585928619 0.27542798123
          -0.59630211415 1.6082235902 0.36862487303 -0.67378517492 1.6562961023 0.46018312153
          -0.74901110094 1.7064388705 0.55487493204 -0.82482799628 1.7562675634 0.64818021952
          -0.18660526134 1.1195160379 -0.12793109313 -0.26175954875 1.168485456 -0.034208272339
          -0.3382783252 1.2161785839 0.05845243625 -0.41421104536 1.2658564386 0.15083896738
          -0.48857758345 1.3155610838 0.24400181992 -0.56618161776 1.3661862777 0.33440482276
          -0.64336477116 1.4159525176 0.42979706515 -0.72047424975 1.4644301072 0.52176959094
          -0.79776486634 1.5143376567 0.6140089575 -0.87173270016 1.5639431779 0.70851126975
          -0.23130003256 0.9232352355 -0.070607844212 -0.30906178496 0.97717272844 0.025579274774
          -0.38495782887 1.0262741864 0.11660989908 -0.46113602803 1.0738674045 0.20982345106
          -0.53901191503 1.1232814743 0.30386839183 -0.61506007865 1.1760209662 0.39711091761
          -0.69055281817 1.2235223128 0.48882855002 -0.76686225633 1.2746140631 0.5815496189
          -0.84531817842 1.321802122 0.6741500599 -0.9149712139 1.3727692831 0.77074223665
          -0.27929429415 0.73154320825 -0.012033801615 -0.35652148493 0.78414589368 0.083678399648
          -0.4324225872 0.8333751684 0.17842063946 -0.50818394097 0.88358251256 0.27200584048
          -0.585473204 0.93223308251 0.36358004983 -0.66139889893 0.983407394 0.4521612461
          -0.73873664856 1.0305309352 0.54532265154 -0.81440534629 1.0817491379 0.6424050009
          -0.89146857883 1.1320488272 0.73502852468 -0.96660028913 1.1802157978 0.83050457308
          -0.32533808781 0.54493579794 0.046799720613 -0.40160019659 0.59404570624 0.1443699193
          -0.47980762774 0.64124907105 0.23771973427 -0.55682411534 0.68887949559 0.33023651419
          -0.63373785746 0.73774337595 0.42334482146 -0.70796180507 0.79141229455 0.51232065265
          -0.78475355871 0.8396309896 0.60825124681 -0.86245568461 0.88717520039 0.70239996183
          -0.93715121195 0.93993794649 0.79308698888 -1.0160953387 0.99216512189 0.88700099771
          -0.37650492425 0.36132152674 0.10717105447 -0.44469176875 0.38474108894 0.20436210388
          -0.52938973552 0.44468864271 0.29648952534 -0.60301329682 0.49730689113 0.3890154588
          -0.68801484757 0.56691833068 0.47539432548 -0.7611649519 0.61096868554 0.56791959546
          -0.8349949601 0.65040256992 0.66398351602 -0.90859925721 0.69900647507 0.76209524672
          -0.97900594886 0.73300888261 0.86296245424 -1.0685614054 0.80204330079 0.94143033302
          0.14575777989 2.019192678 -0.54637528274 0.06800841675 2.0650356128 -0.45532204899
          -0.012573790861 2.1159186275 -0.3605553132 -0.08498039517 2.1654600232 -0.26870103643
          -0.16024339073 2.2156156117 -0.17685364078 -0.23644593843 2.2645191541 -0.082459513041
          -0.31216385011 2.3156608964 0.0094560781456 -0.39212201785 2.3647302431 0.10498471576
          -0.4658339525 2.4149244282 0.19842876994 -0.54020056239 2.4639623842 0.28504060214
          0.098745547954 1.826371809 -0.48662005623 0.020415245272 1.8744406639 -0.39354781924
          -0.05612524405 1.9246612765 -0.30065861972 -0.13142581787 1.9742490145 -0.20664079825
          -0.20844390072 2.0235594072 -0.11495568522 -0.28393514132 2.0741139722 -0.021798527497
          -0.36161886607 2.1219333089 0.069899383195 -0.43744076013 2.1736648389 0.16353120157
          -0.51318111809 2.2231682434 0.25678175987 -0.58812621445 2.2730773658 0.34817356095
          0.047936101485 1.6320439205 -0.42653635993 -0.026182793396 1.6826230149 -0.33299630754
          -0.10310185618 1.7325221863 -0.24020435906 -0.1790780702 1.7824906752 -0.14755055778
          -0.25606704106 1.8318678183 -0.054340849059 -0.33166191739 1.8820429038 0.039297162566
          -0.40818003209 1.9321918103 0.13250865428 -0.4843443843 1.9814944256 0.22540870285
          -0.55991766374 2.0314006119 0.31820620929 -0.63786406676 2.0805701548 0.41256585324
          0.0017361522462 1.4410230635 -0.36564871323 -0.073811936421 1.4917175132 -0.27210876494
          -0.15055530681 1.5422733546 -0.17944635543 -0.22672117561 1.5907165509 -0.086252910642
          -0.30175950436 1.6407811252 0.0066021565104 -0.37827321547 1.6907057144 0.099793078584
          -0.45502508176 1.7409473854 0.19350008829 -0.53220622904 1.7904505749 0.28555105136
          -0.6081550565 1.8398505458 0.37862071764 -0.68404927639 1.8889400138 0.47223713717
          -0.044815081819 1.2513206914 -0.30445935159 -0.12093229581 1.3003542823 -0.21178238305
          -0.19658411334 1.349751497 -0.11895260596 -0.27304308365 1.3990463189 -0.026117330427
          -0.34933922527 1.4493734041 0.067120766399 -0.42589472958 1.4992681606 0.15990726496
          -0.50170918282 1.5484987481 0.2537662147 -0.57807445124 1.5985323047 0.34534619399
          -0.65489356976 1.6481577681 0.43940303769 -0.73206160395 1.6973922987 0.53199107619
          -0.091111560697 1.0588973694 -0.24537555618 -0.16721288017 1.1088011007 -0.15166702246
          -0.24441356139 1.1583318774 -0.058305918093 -0.31969313007 1.206987818 0.035013588918
          -0.39533040692 1.2577233023 0.1277930975 -0.47260610635 1.3083936071 0.21919540442
          -0.54941988681 1.3569102765 0.31377830798 -0.62636238333 1.4072815027 0.40729403802
          -0.70184951528 1.4568147786 0.49894759433 -0.77648786789 1.5068676437 0.59339080893
          -0.13795226374 0.86818850395 -0.18418573805 -0.21392857872 0.91752236832 -0.091589070515
          -0.29097599553 0.9671562064 0.0030083781855 -0.36690957257 1.0157585514 0.096900514435
          -0.44393916231 1.0655332 0.18865841791 -0.52034109553 1.1169776982 0.28004294476
          -0.59683805311 1.1642702334 0.37273359896 -0.6732632219 1.2155083408 0.46636653912
          -0.74939199626 1.2651294976 0.56017329148 -0.82688595266 1.313736996 0.65254834427
          -0.18617242765 0.67872682018 -0.12430266338 -0.26185884676 0.72500832891 -0.030726743742
          -0.33830424462 0.77470457085 0.062348795063 -0.41495376699 0.82361169398 0.15551660659
          -0.49177020547 0.87364537639 0.24822551103 -0.56743311895 0.92499605348 0.34025073089
          -0.64386678597 0.97357929092 0.43365290046 -0.72024817437 1.0235117392 0.52681071184
          -0.79705082805 1.072354502 0.62042679254 -0.87502674517 1.1234854364 0.71105303677
          -0.23314584374 0.48647474601 -0.063444435725 -0.30841182606 0.53099702743 0.028425762489
          -0.38564669529 0.58298193604 0.12145196085 -0.46262482679 0.63140559285 0.21381240304
          -0.54104507619 0.68229438 0.30724140709 -0.61591973431 0.73495260457 0.39946095726
          -0.69081449349 0.78329479286 0.49467502584 -0.76668468401 0.83163495667 0.58658616842
          -0.8433399289 0.8800198454 0.68085923201 -0.92446296578 0.9293689281 0.77089454799
          -0.27996322779 0.28878510984 -0.0029641059598 -0.35600375395 0.34212570446 0.092120072184
          -0.43476358758 0.39120129152 0.1808371788 -0.51083516815 0.43858137009 0.27408386701
          -0.58432096338 0.48759988187 0.37098973889 -0.65859227868 0.53696158019 0.45661548408
          -0.73852393247 0.59092218256 0.55073640895 -0.81480467612 0.63958082924 0.64587325363
          -0.89274204834 0.68486362688 0.73859091127 -0.96804222878 0.7315024084 0.83262139446
          0.23734058922 1.9546796102 -0.66204212367 0.16235222012 2.0076177845 -0.56941805956
          0.085440954658 2.0574921484 -0.47748183056 0.0086409392216 2.1062931738 -0.3838156377
          -0.066774776588 2.1568261348 -0.2912702178 -0.14170208728 2.2072891248 -0.19795830079
          -0.22057601344 2.257192138 -0.10388926641 -0.29680115401 2.3074757486 -0.01205806972
          -0.37226790259 2.3557519435 0.078338283114 -0.44713106705 2.4037357422 0.17869352497
          0.19037858938 1.7631576773 -0.60239387079 0.114996875 1.8158896634 -0.50853292709
          0.038091636044 1.8656109755 -0.41616606083 -0.037470404435 1.9157294248 -0.32341243152
          -0.11443812936 1.9656918697 -0.23052859445 -0.19015177183 2.0158433613 -0.13700485934
          -0.26720931926 2.065298394 -0.043998462504 -0.3428017964 2.1151545922 0.049261779781
          -0.41980543574 2.1647335282 0.14202024881 -0.49565665939 2.2127111476 0.23981767196
          0.14411857846 1.5760627279 -0.54085921882 0.06781784169 1.625221477 -0.44780259722
          -0.0086699885419 1.6742563199 -0.35557468921 -0.084800611997 1.7242747818 -0.26232573255
          -0.16127869009 1.7741328067 -0.16945641919 -0.23736664906 1.8238311666 -0.075862906557
          -0.3137903429 1.8739431027 0.016326165678 -0.38964941276 1.9237968039 0.1097591762
          -0.46715705349 1.9730300541 0.20212487546 -0.54465106469 2.0240020162 0.29424693537
          0.097479143675 1.3833731569 -0.48172360673 0.020843015628 1.4329036386 -0.38897453614
          -0.055738156061 1.4827352537 -0.2947716529 -0.13213089629 1.5326631871 -0.20143387344
          -0.20809342029 1.5826117808 -0.10886818905 -0.28452209224 1.6326091104 -0.015949551699
          -0.36090868302 1.6825385758 0.077403767736 -0.43721540303 1.7320409448 0.17042304518
          -0.51323904697 1.7816793228 0.26398565618 -0.58966329991 1.8314059631 0.35667735768
          0.050334271585 1.1919539393 -0.42038996209 -0.026007077887 1.2415564241 -0.32807430279
          -0.10258065573 1.2914103228 -0.23374908738 -0.17875434872 1.3412458053 -0.14092894156
          -0.25509276443 1.3913459299 -0.048587153506 -0.33168516501 1.440776335 0.044581103696
          -0.40795979625 1.4907027439 0.13763894145 -0.48479385822 1.5398026867 0.23061997509
          -0.56008093447 1.5904487297 0.32389536335 -0.63659059214 1.6396806711 0.41651593196
          0.0039442483816 0.99997721052 -0.36065254534 -0.073212863045 1.0506953105 -0.26744076262
          -0.14957294757 1.1001944722 -0.17401034205 -0.22521246824 1.1493536101 -0.080088279359
          -0.30183663659 1.199172389 0.012966673102 -0.37856049315 1.2489805682 0.10435351479
          -0.45469425974 1.2987285149 0.1978762469 -0.53114316385 1.3486488415 0.29133192137
          -0.60769862866 1.3987365 0.3844328032 -0.68388179645 1.446924254 0.47815045269
          -0.043483112044 0.80897173776 -0.30053672072 -0.11993625462 0.85870607393 -0.20620474002
          -0.196224654 0.90854598014 -0.11277277954 -0.27288812097 0.95790154832 -0.020403427051
          -0.34893850853 1.0069462151 0.07345881185 -0.42515649287 1.0575645902 0.16419402546
          -0.50201539487 1.1075379186 0.25800982768 -0.57882022994 1.1570763992 0.35119706559
          -0.65565944389 1.2064452123 0.44413340432 -0.73076834498 1.2560392028 0.53902761882
          -0.092005987637 0.61892623919 -0.23912642071 -0.16759425518 0.66769257419 -0.14673966478
          -0.24244939782 0.71762508631 -0.054017748635 -0.31967435167 0.76597804701 0.040145366625
          -0.39685961231 0.8146527863 0.13235779375 -0.4717994762 0.86685145955 0.22470405026
          -0.54861892687 0.91602124085 0.31881256138 -0.62421203465 0.96543296241 0.4101989805
          -0.7034250679 1.0150142483 0.50554961915 -0.78038969954 1.0640250607 0.59791095112
          -0.13767061487 0.42759451839 -0.18264653643 -0.21436698582 0.4759598111 -0.085148874179
          -0.29094364625 0.52475011542 0.0073349353993 -0.36718915339 0.57479134945 0.10090911724
          -0.44376762293 0.62306254264 0.19382235102 -0.51965672546 0.67431088788 0.28292083315
          -0.59688299695 0.72389223379 0.37658614876 -0.67294735866 0.77299031177 0.47163618132
          -0.75033554336 0.82162611691 0.56389281379 -0.82543412851 0.87444901732 0.65845419718
          -0.18547948297 0.23404575351 -0.1208393787 -0.26067245382 0.28185143643 -0.030445154015
          -0.33748228424 0.33146558807 0.066866977762 -0.41423995117 0.38216273555 0.15916492861
          -0.49010825241 0.43180286776 0.25376824363 -0.56641084587 0.48224931313 0.34327639006
          -0.64226147176 0.53191098089 0.43670010513 -0.72007386886 0.57983009646 0.53111795021
          -0.7954857777 0.63161227121 0.62556173103 -0.87621782568 0.67641989133 0.71647752812
          0.33073456224 1.8951754666 -0.77796712412 0.25538695289 1.948341756 -0.68564613525
          0.1800211822 2.0002703081 -0.59185874032 0.10344487314 2.0481857314 -0.49907555434
          0.026924726741 2.099373425 -0.40642162562 -0.048750261547 2.1488855483 -0.31240181823
          -0.12528147361 2.1980726768 -0.21978122999 -0.2023853498 2.2491169101 -0.12721215493
          -0.27833661679 2.298519032 -0.032816444592 -0.35318064137 2.345236137 0.062825751751
          0.28633599115 1.7076865646 -0.71711816094 0.20953878375 1.7570581604 -0.62425378741
          0.13298883988 1.8076076907 -0.53169069692 0.056959506031 1.8571293626 -0.43883173373
          -0.020087541362 1.9071902958 -0.34536289176 -0.095990050069 1.9573406232 -0.25253285354
          -0.17081453154 2.0071308856 -0.15845501865 -0.24810220772 2.0570292348 -0.066026956007
          -0.32432998011 2.1059183855 0.027022573965 -0.4021823778 2.1567159515 0.1216172441
          0.23810084947 1.5159792846 -0.657099544 0.16194792882 1.5660654822 -0.56426018932
          0.086774802255 1.6159655329 -0.47081489314 0.00971184457 1.6656349994 -0.37773760935
          -0.06678230457 1.715809078 -0.28466589395 -0.14317715578 1.7655711436 -0.19165743614
          -0.21922814112 1.8155786814 -0.098746681226 -0.29569458852 1.8647529975 -0.0058045648246
          -0.37171926974 1.914742665 0.08765354034 -0.44845218884 1.9645124973 0.18187214469
          0.19209867102 1.3254847529 -0.59689597025 0.11551997104 1.3749027049 -0.50317295407
          0.039006692354 1.4249288408 -0.40964648819 -0.037464713671 1.47432393 -0.31682953688
          -0.11348307719 1.5241804088 -0.22417841321 -0.18987344796 1.5741615105 -0.13116713029
          -0.2662556141 1.6240537086 -0.038077619403 -0.34340876161 1.6733621514 0.054408764099
          -0.41909067669 1.723185307 0.14856646957 -0.4956127833 1.7732381323 0.24163075246
          0.14460688621 1.1327247019 -0.53495817064 0.068246819744 1.1835069065 -0.44215320035
          -0.0075519471743 1.232910417 -0.34953582444 -0.084272874685 1.2829312697 -0.25574393868
          -0.16069367377 1.3323423209 -0.1629421238 -0.23686919097 1.3826827531 -0.07056268144
          -0.31345569464 1.4322273501 0.022515109644 -0.3893736213 1.4819281632 0.11579515831
          -0.46655013807 1.5313773346 0.20824964403 -0.54248840251 1.5807380223 0.30098177664
          0.097842216698 0.94171678403 -0.47559938224 0.021821210422 0.99158572062 -0.38187560854
          -0.054815266977 1.0418019678 -0.2889827773 -0.13121029427 1.0911842717 -0.19628965205
          -0.20793989758 1.1402124152 -0.10359492964 -0.28369472244 1.1915082961 -0.0099988573695
          -0.35973823121 1.2408032395 0.083174179026 -0.4365536118 1.2902350664 0.17618231163
          -0.51350303442 1.3394510728 0.26903859547 -0.59030317085 1.3898028438 0.36205964268
          0.05042042646 0.75032148973 -0.41456439552 -0.025313330229 0.80020475752 -0.32178960152
          -0.10166240484 0.85034950941 -0.2276336849 -0.1787500592 0.89924295961 -0.13582702202
          -0.25594249814 0.94869606469 -0.041759470747 -0.33041030218 0.99997496076 0.05043247823
          -0.40706377484 1.0492318627 0.14361434919 -0.4838216465 1.0983467001 0.236258519
          -0.56017568091 1.1480271442 0.32957123776 -0.63751458515 1.1966611801 0.42316393268