<?xml version="1.0"?>
<VTKFile type="UnstructuredGrid" version="0.1" byte_order="LittleEndian" compressor="vtkZLibDataCompressor">
  <UnstructuredGrid>
    <FieldData>
      <DataArray type="Float64" Name="TIME" NumberOfTuples="1" format="ascii" RangeMin="1.3383100953" RangeMax="1.3383100953">
        1.3383100953
      </DataArray>
    </FieldData>
    <Piece NumberOfPoints="1000" NumberOfCells="0">
      <PointData>
        <DataArray type="Float64" Name="Damage" format="ascii" RangeMin="0" RangeMax="0.5081300813">
          0.024193548387 0.006711409396 0 0 0 0
          0 0.010204081633 0.046979865772 0.12903225806 0.006711409396 0.027932960894
          0 0 0 0 0 0
          0.033519553073 0.013422818792 0 0.055084745763 0.071428571429 0.040345821326
          0.014164305949 0.012987012987 0.040345821326 0.071428571429 0.055084745763 0.0051020408163
          0 0.067669172932 0.11239193084 0.1074168798 0.037688442211 0.034562211982
          0.1074168798 0.11239193084 0.067669172932 0 0 0.074349442379
          0.16147308782 0.16834170854 0.12376237624 0.11286681716 0.16834170854 0.16147308782
          0.074349442379 0 0 0.084459459459 0.2 0.25806451613
          0.33860045147 0.39211618257 0.25806451613 0.2 0.084459459459 0
          0 0.093984962406 0.25360230548 0.36061381074 0.41959798995 0.46774193548
          0.36061381074 0.25360230548 0.093984962406 0 0 0.10593220339
          0.31493506494 0.40057636888 0.4447592068 0.49090909091 0.40057636888 0.31493506494
          0.10593220339 0 0 0.17318435754 0.3686440678 0.43984962406
          0.44981412639 0.5 0.43984962406 0.3686440678 0.17318435754 0.006711409396
          0.016129032258 0.18791946309 0.36734693878 0.44343891403 0.46428571429 0.5081300813
          0.44343891403 0.36734693878 0.18791946309 0.016129032258 0.006711409396 0
          0 0 0 0 0.0037593984962 0.012711864407
          0.016759776536 0.046979865772 0 0.027906976744 0 0
          0 0 0 0 0.032558139535 0
          0 0.056338028169 0.072776280323 0.040669856459 0.014117647059 0.012931034483
          0.040669856459 0.072776280323 0.056338028169 0 0 0.06875
          0.11483253589 0.10828025478 0.0375782881 0.034416826004 0.10828025478 0.11483253589
          0.06875 0 0 0.074303405573 0.16235294118 0.16910229645
          0.12371134021 0.11257035647 0.16910229645 0.16235294118 0.074303405573 0
          0 0.084269662921 0.20043103448 0.25812619503 0.33771106942 0.39242685026
          0.25812619503 0.20043103448 0.084269662921 0 0 0.09375
          0.25358851675 0.36093418259 0.41962421712 0.46845124283 0.36093418259 0.25358851675
          0.09375 0 0 0.10563380282 0.3153638814 0.4019138756
          0.44470588235 0.49137931034 0.4019138756 0.3153638814 0.10563380282 0
          0 0.16744186047 0.36971830986 0.440625 0.44582043344 0.49719101124
          0.440625 0.36971830986 0.16744186047 0 0.013422818792 0.17877094972
          0.3686440678 0.44360902256 0.44981412639 0.5 0.43984962406 0.3686440678
          0.17877094972 0.006711409396 0 0 0 0
          0 0 0.0028818443804 0.0064935064935 0.012711864407 0.020408163265
          0 0.024647887324 0 0 0 0
          0 0 0.028169014085 0 0 0.051212938005
          0.06875 0.038817005545 0.012635379061 0.011666666667 0.038817005545 0.06875
          0.051212938005 0 0 0.064593301435 0.10905730129 0.10491803279
          0.036858974359 0.034023668639 0.10491803279 0.10905730129 0.064593301435 0
          0 0.070588235294 0.15523465704 0.16506410256 0.12283464567 0.11271676301
          0.16506410256 0.15523465704 0.070588235294 0 0 0.081896551724
          0.19333333333 0.25443786982 0.33959537572 0.38985313752 0.25443786982 0.19333333333
          0.081896551724 0 0 0.093301435407 0.24768946396 0.35573770492
          0.41987179487 0.46449704142 0.35573770492 0.24768946396 0.093301435407 0
          0 0.10781671159 0.30833333333 0.39556377079 0.4440433213 0.48666666667
          0.39556377079 0.30833333333 0.10781671159 0 0 0.16197183099
          0.35579514825 0.43062200957 0.44470588235 0.49137931034 0.43062200957 0.35579514825
          0.16197183099 0 0 0.16101694915 0.3538961039 0.42939481268
          0.4447592068 0.49090909091 0.42939481268 0.3538961039 0.16101694915 0
          0 0 0 0 0 0
          0 0.0028818443804 0.0075187969925 0 0 0.025
          0 0 0 0 0 0
          0.025 0 0 0.05023923445 0.068391866913 0.039344262295
          0.012820512821 0.011834319527 0.039344262295 0.068391866913 0.05023923445 0
          0 0.063694267516 0.10819672131 0.10465116279 0.036984352774 0.034120734908
          0.10465116279 0.10819672131 0.063694267516 0 0 0.070981210856
          0.15544871795 0.16500711238 0.12290502793 0.11282051282 0.16500711238 0.15544871795
          0.070981210856 0 0 0.082217973231 0.19378698225 0.25459317585
          0.33974358974 0.38981042654 0.25459317585 0.19378698225 0.082217973231 0
          0 0.093418259023 0.24918032787 0.35610465116 0.41963015647 0.46456692913
          0.35610465116 0.24918032787 0.093418259023 0 0 0.10765550239
          0.30868761553 0.39508196721 0.44391025641 0.48668639053 0.39508196721 0.30868761553
          0.10765550239 0 0 0.1625 0.35645933014 0.43099787686
          0.44467640919 0.4913957935 0.43099787686 0.35645933014 0.1625 0
          0 0.16165413534 0.35446685879 0.42966751918 0.44472361809 0.49078341014
          0.42966751918 0.35446685879 0.16165413534 0 0 0
          0 0 0 0 0 0
          0 0 0 0.02786377709 0 0
          0 0 0 0 0.02786377709 0
          0 0.054117647059 0.070397111913 0.040064102564 0.014173228346 0.013005780347
          0.040064102564 0.070397111913 0.054117647059 0 0 0.066805845511
          0.11057692308 0.106685633 0.037709497207 0.034615384615 0.106685633 0.11057692308
          0.066805845511 0 0 0.074226804124 0.16062992126 0.16759776536
          0.12362637363 0.11292346299 0.16759776536 0.16062992126 0.074226804124 0
          0 0.084427767355 0.19942196532 0.25769230769 0.33877038896 0.39145496536
          0.25769230769 0.19942196532 0.084427767355 0 0 0.093945720251
          0.25320512821 0.35988620199 0.41899441341 0.46666666667 0.35988620199 0.25320512821
          0.093945720251 0 0 0.10588235294 0.31407942238 0.39903846154
          0.44409448819 0.48988439306 0.39903846154 0.31407942238 0.10588235294 0
          0 0.16718266254 0.36705882353 0.43841336117 0.44536082474 0.49530956848
          0.43841336117 0.36705882353 0.16718266254 0 0 0.16728624535
          0.36543909348 0.43718592965 0.44554455446 0.49435665914 0.43718592965 0.36543909348
          0.16728624535 0 0 0 0 0
          0 0 0 0 0 0
          0 0.025280898876 0 0 0 0
          0 0 0.025280898876 0 0 0.049568965517
          0.066666666667 0.038461538462 0.013005780347 0.012016021362 0.038461538462 0.066666666667
          0.049568965517 0 0 0.06309751434 0.1050295858 0.10367454068
          0.037179487179 0.034360189573 0.10367454068 0.1050295858 0.06309751434 0
          0 0.071294559099 0.15462427746 0.1641025641 0.12296110414 0.11316397229
          0.1641025641 0.15462427746 0.071294559099 0 0 0.082616179002
          0.19359145527 0.25473933649 0.34064665127 0.38930481283 0.25473933649 0.19359145527
          0.082616179002 0 0 0.093690248566 0.24852071006 0.35564304462
          0.41923076923 0.46327014218 0.35564304462 0.24852071006 0.093690248566 0
          0 0.10775862069 0.30833333333 0.39349112426 0.4436416185 0.48598130841
          0.39349112426 0.30833333333 0.10775862069 0 0 0.16292134831
          0.35560344828 0.43021032505 0.44465290807 0.49053356282 0.43021032505 0.35560344828
          0.16292134831 0 0 0.16216216216 0.35324675325 0.42857142857
          0.44469525959 0.48962655602 0.42857142857 0.35324675325 0.16216216216 0
          0.0045248868778 0.0037593984962 0 0 0 0
          0 0 0 0 0 0.025
          0 0 0 0 0 0
          0.025 0 0 0.05023923445 0.068391866913 0.039344262295
          0.012820512821 0.011834319527 0.039344262295 0.068391866913 0.05023923445 0
          0 0.063694267516 0.10819672131 0.10465116279 0.036984352774 0.034120734908
          0.10465116279 0.10819672131 0.063694267516 0 0 0.070981210856
          0.15544871795 0.16500711238 0.12290502793 0.11282051282 0.16500711238 0.15544871795
          0.070981210856 0 0 0.082217973231 0.19378698225 0.25459317585
          0.33974358974 0.38981042654 0.25459317585 0.19378698225 0.082217973231 0
          0 0.093418259023 0.24918032787 0.35610465116 0.41963015647 0.46456692913
          0.35610465116 0.24918032787 0.093418259023 0 0 0.10765550239
          0.30868761553 0.39508196721 0.44391025641 0.48668639053 0.39508196721 0.30868761553
          0.10765550239 0 0 0.1625 0.35645933014 0.43099787686
          0.44467640919 0.4913957935 0.43099787686 0.35645933014 0.1625 0
          0 0.16165413534 0.35446685879 0.42966751918 0.44472361809 0.49078341014
          0.42966751918 0.35446685879 0.16165413534 0 0.025510204082 0.0084745762712
          0 0 0 0 0 0
          0 0 0.0042372881356 0.024647887324 0 0
          0 0 0 0 0.024647887324 0
          0 0.051212938005 0.06875 0.038817005545 0.012635379061 0.011666666667
          0.038817005545 0.06875 0.051212938005 0 0 0.064593301435
          0.10905730129 0.10491803279 0.036858974359 0.034023668639 0.10491803279 0.10905730129
          0.064593301435 0 0 0.070588235294 0.15523465704 0.16506410256
          0.12283464567 0.11271676301 0.16506410256 0.15523465704 0.070588235294 0
          0 0.081896551724 0.19333333333 0.25443786982 0.33959537572 0.38985313752
          0.25443786982 0.19333333333 0.081896551724 0 0 0.093301435407
          0.24768946396 0.35573770492 0.41987179487 0.46449704142 0.35573770492 0.24768946396
          0.093301435407 0 0 0.10781671159 0.30833333333 0.39556377079
          0.4440433213 0.48666666667 0.39556377079 0.30833333333 0.10781671159 0
          0 0.16197183099 0.35579514825 0.43062200957 0.44470588235 0.49137931034
          0.43062200957 0.35579514825 0.16197183099 0 0 0.16101694915
          0.3538961039 0.42939481268 0.4447592068 0.49090909091 0.42939481268 0.3538961039
          0.16101694915 0 0.040268456376 0.011173184358 0.0084745762712 0
          0 0 0 0 0 0.006711409396
          0.011173184358 0.027906976744 0 0 0 0
          0 0 0.027906976744 0 0 0.056338028169
          0.072776280323 0.040669856459 0.014117647059 0.012931034483 0.040669856459 0.072776280323
          0.056338028169 0 0 0.06875 0.11483253589 0.10828025478
          0.0375782881 0.034416826004 0.10828025478 0.11483253589 0.06875 0
          0 0.074303405573 0.16235294118 0.16910229645 0.12371134021 0.11257035647
          0.16910229645 0.16235294118 0.074303405573 0 0 0.084269662921
          0.20043103448 0.25812619503 0.33771106942 0.39242685026 0.25812619503 0.20043103448
          0.084269662921 0 0 0.09375 0.25358851675 0.36093418259
          0.41962421712 0.46845124283 0.36093418259 0.25358851675 0.09375 0
          0 0.10563380282 0.3153638814 0.4019138756 0.44470588235 0.49137931034
          0.4019138756 0.3153638814 0.10563380282 0 0 0.16744186047
          0.36971830986 0.440625 0.44582043344 0.49719101124 0.440625 0.36971830986
          0.16744186047 0 0.006711409396 0.16759776536 0.3686440678 0.44360902256
          0.44981412639 0.5 0.43984962406 0.3686440678 0.17318435754 0.006711409396
          0.024193548387 0.046979865772 0.020408163265 0.0045248868778 0 0
          0 0 0 0.008064516129 0.03355704698 0.039106145251
          0.0042372881356 0 0 0 0 0
          0.027932960894 0 0.0051020408163 0.055084745763 0.071428571429 0.040345821326
          0.014164305949 0.012987012987 0.040345821326 0.071428571429 0.055084745763 0
          0 0.067669172932 0.11239193084 0.1074168798 0.037688442211 0.034562211982
          0.1074168798 0.11239193084 0.067669172932 0 0 0.074349442379
          0.16147308782 0.16834170854 0.12376237624 0.11286681716 0.16834170854 0.16147308782
          0.074349442379 0 0 0.084459459459 0.2 0.25806451613
          0.33860045147 0.39211618257 0.25806451613 0.2 0.084459459459 0
          0 0.093984962406 0.25360230548 0.36061381074 0.41959798995 0.46774193548
          0.36061381074 0.25360230548 0.093984962406 0 0 0.10593220339
          0.31493506494 0.40057636888 0.44759206799 0.49090909091 0.40057636888 0.31493506494
          0.10593220339 0 0.006711409396 0.16759776536 0.3686440678 0.43984962406
          0.44981412639 0.5 0.43984962406 0.3686440678 0.16759776536 0.006711409396
          0.024193548387 0.1744966443 0.36734693878 0.44343891403 0.46875 0.5081300813
          0.44343891403 0.36734693878 0.18120805369 0.024193548387
        </DataArray>
        <DataArray type="Float64" Name="Displacement" NumberOfComponents="3" format="ascii" RangeMin="0.32976272076" RangeMax="2.1032672708">
          0.0020542500568 1.5418202947 -0.50368336819 -0.080370204008 1.5762592246 -0.41148142969
          -0.15101171847 1.6206050955 -0.3199481539 -0.23425283486 1.6607474484 -0.22253511222
          -0.31019035628 1.7072161666 -0.12211193459 -0.39281606773 1.750995377 -0.026592482105
          -0.47622730451 1.7942107913 0.068911180564 -0.55251611673 1.8376852061 0.17167960286
          -0.63248965908 1.8829864736 0.25118398465 -0.70103956253 1.9309612007 0.36953717123
          -0.042262250136 1.3371968228 -0.45423675587 -0.11982412275 1.3772639583 -0.35846558605
          -0.2015245393 1.4188468915 -0.26042674065 -0.28069107698 1.4626062327 -0.16415670828
          -0.35767121424 1.5058166899 -0.068236722488 -0.43851582429 1.5510567716 0.030986101698
          -0.51820652881 1.5937221238 0.12684261351 -0.59980382675 1.6376340032 0.22401576552
          -0.67660758308 1.6845695656 0.3216088483 -0.75243654802 1.7244130167 0.42233935835
          -0.083270766228 1.1405346876 -0.39684737058 -0.16055977792 1.17889947 -0.30438891248
          -0.24080481719 1.2214632826 -0.20812782751 -0.31843864434 1.2655775062 -0.11373649341
          -0.40024893938 1.3082720681 -0.014764871 -0.4787965526 1.3501599236 0.082639864221
          -0.55640935395 1.3964848416 0.1785600852 -0.63669817118 1.4406658421 0.27569290636
          -0.71768393217 1.4845088627 0.37248014978 -0.79628212928 1.5268255798 0.47297023724
          -0.12591182452 0.93736219916 -0.34705105957 -0.20375958703 0.97854546698 -0.25143843876
          -0.28427930689 1.0227557255 -0.1531680912 -0.36324587546 1.0644408278 -0.056758576387
          -0.4432483232 1.1094656635 0.041258328868 -0.52316110407 1.1539092404 0.13615160195
          -0.59968302413 1.1965021039 0.23338172331 -0.67963225993 1.242421299 0.32969540266
          -0.75691021164 1.2867893768 0.42874077799 -0.83825354569 1.3300109493 0.52229225566
          -0.16443948065 0.73563329514 -0.29659643322 -0.24606882276 0.77966981033 -0.19798298411
          -0.32457870129 0.82259903976 -0.10075450603 -0.40464144458 0.86552042023 -0.0044091881788
          -0.48385387666 0.90911233393 0.092749624295 -0.56315660502 0.95616095512 0.18808937909
          -0.64066363869 0.99907745591 0.2871712499 -0.7224504543 1.043965853 0.38267502823
          -0.80016200579 1.0878442126 0.47904705474 -0.8770223085 1.1296804051 0.57852576311
          -0.20710506874 0.53650602036 -0.24249479231 -0.28821256927 0.57884623673 -0.14528858062
          -0.36704236949 0.62370661583 -0.047452743145 -0.44617021873 0.6656342054 0.049010838728
          -0.52645359141 0.70991467852 0.14555349099 -0.60721336917 0.75901745031 0.24291297722
          -0.68644617602 0.80249704444 0.33882685166 -0.76644280211 0.84637752761 0.43585015055
          -0.8427027998 0.88929675255 0.53776904277 -0.92361573508 0.93131073206 0.62815379494
          -0.2498635013 0.3389037488 -0.19159532513 -0.32963921431 0.38217422456 -0.09239929007
          -0.40896749382 0.42236793699 0.0056044282892 -0.48742299143 0.46789851358 0.10203763707
          -0.56899232253 0.50924217796 0.19922892606 -0.64886796978 0.55965276254 0.29483492308
          -0.72877642738 0.60213535591 0.39204167411 -0.8068719477 0.64540063121 0.49067058003
          -0.88752371728 0.69329504131 0.5868167794 -0.96543683642 0.73329359029 0.68271292722
          -0.29033819843 0.13541310335 -0.1411609678 -0.37189828509 0.18126339584 -0.040311156095
          -0.45245150171 0.22454671363 0.059023950059 -0.53183065743 0.26653020245 0.15322094511
          -0.61095193805 0.31005195668 0.25271668837 -0.69362708284 0.36323237051 0.34800288524
          -0.77250324333 0.40527155878 0.44479309475 -0.85189741035 0.44874389197 0.54411408709
          -0.92938293647 0.49241820756 0.64137203732 -1.0119731031 0.53498830432 0.73628496536
          -0.33679966299 -0.062541306418 -0.086611764621 -0.4138102505 -0.018698472842 0.010021795283
          -0.4931526933 0.021788787975 0.10921717778 -0.57487919879 0.064323821514 0.20423831418
          -0.65655475537 0.11071340225 0.30106334882 -0.73808553371 0.16456532498 0.40257380371
          -0.81387377893 0.20150098759 0.49639111929 -0.89421180245 0.24660327292 0.59443700558
          -0.97310446614 0.29422061445 0.69165636838 -1.0539327413 0.33973469475 0.78872942657
          -0.37709722017 -0.25758014795 -0.035718517403 -0.45019618714 -0.22282628482 0.064761737332
          -0.53666331464 -0.17848687031 0.1602522308 -0.61431063083 -0.12952183475 0.26568130237
          -0.69762708622 -0.096885084242 0.35386956968 -0.77747779132 -0.030784495992 0.43545081404
          -0.85949699734 0.0071476116205 0.54064463094 -0.93747754001 0.050787104545 0.64819223945
          -1.0180645205 0.093166875124 0.74279859373 -1.0957704359 0.14333933395 0.84171509947
          0.094683973687 1.4755761749 -0.62825325987 0.020208900691 1.5230134299 -0.53349279363
          -0.061057596537 1.568836804 -0.43394824505 -0.13907368588 1.610366977 -0.33995693385
          -0.21818873139 1.6554149628 -0.24029414972 -0.29674751089 1.6984396035 -0.1438157537
          -0.37739890292 1.7419764126 -0.045273861552 -0.45508586535 1.7874606665 0.050466774553
          -0.53102530708 1.827930826 0.14581369394 -0.61357746967 1.8757379867 0.25194218387
          0.056576947975 1.283494247 -0.57253571491 -0.022393626941 1.3251802445 -0.47815426856
          -0.10074170242 1.3674489405 -0.38370736649 -0.17902726623 1.4122925488 -0.28512613562
          -0.25881695895 1.4552379562 -0.18776399136 -0.33877357188 1.4998707327 -0.091141252682
          -0.41884829723 1.543323287 0.0061356873254 -0.49672816658 1.5865641848 0.10358844427
          -0.57692012001 1.6315982054 0.19990631625 -0.65574871487 1.6731008374 0.3010476567
          0.015536281677 1.0804716524 -0.52137072744 -0.064355377485 1.12561439 -0.42510433326
          -0.14286954668 1.170422885 -0.32780523068 -0.22232595479 1.2125177603 -0.23192314077
          -0.30145481439 1.2560741745 -0.13450100492 -0.38196748578 1.3006666663 -0.036717568522
          -0.45979126921 1.3449886707 0.060901642284 -0.54110976016 1.3877811396 0.15599479488
          -0.61996185866 1.4322618027 0.25377901277 -0.69640143996 1.4743507142 0.35268052239
          -0.026424366363 0.88615914174 -0.46872049358 -0.10609898652 0.92675886884 -0.37171753798
          -0.18512021025 0.97004462613 -0.27433009496 -0.2642765756 1.0143539276 -0.17752003252
          -0.34342866756 1.0576403177 -0.081436829304 -0.42354849551 1.1017970454 0.016051480916
          -0.50329377633 1.1463827034 0.11431280057 -0.58192845036 1.1882637466 0.20944136733
          -0.66055130993 1.2326725415 0.30809897582 -0.74040069431 1.2766883526 0.40291415519
          -0.067668701835 0.68181802035 -0.41572613673 -0.14776655926 0.72616052688 -0.31863824477
          -0.22829705376 0.77078659957 -0.22116932563 -0.3068012854 0.8137406074 -0.124244139
          -0.38552477718 0.85726047854 -0.027922522814 -0.46555585024 0.90253795732 0.0687712279
          -0.54478743989 0.94771899705 0.16689130479 -0.6246852214 0.99168650728 0.26334917119
          -0.70324208783 1.0343101958 0.361054527 -0.7803152833 1.0748126084 0.46011614944
          -0.11097008697 0.48392724532 -0.36264036224 -0.18944424887 0.5294795543 -0.2667160028
          -0.27049885353 0.57043128225 -0.16873187224 -0.34961776361 0.6151027589 -0.071505921013
          -0.42662320828 0.65831355104 0.025902611746 -0.50880334174 0.70498314022 0.12142655048
          -0.58916503404 0.74897346454 0.21924403969 -0.66734601518 0.79213714099 0.31665061407
          -0.74570070946 0.83643537573 0.41546279536 -0.82539597581 0.8782746948 0.51159408163
          -0.15219838044 0.28640565283 -0.30900148511 -0.23261216031 0.32828386852 -0.21249967171
          -0.31169383764 0.37284650152 -0.1151029134 -0.39109309786 0.41582877198 -0.016383550602
          -0.46925433632 0.45789729147 0.079010533342 -0.5509140482 0.50647450074 0.17491154166
          -0.63199727737 0.54900193179 0.27178800492 -0.71153394229 0.59400745407 0.37086617918
          -0.7882729115 0.63815852417 0.46610339197 -0.86663161337 0.67903999957 0.56607744004
          -0.19702800198 0.088922783355 -0.25521411921 -0.2748654325 0.13091178853 -0.16038721679
          -0.35401499717 0.17362794306 -0.063382267424 -0.43319896748 0.21605103169 0.035134428981
          -0.51242421174 0.25793085743 0.13186159594 -0.59450058263 0.3082226102 0.22823349339
          -0.67444413801 0.35178176149 0.32555714887 -0.75335183777 0.39602653632 0.42283380693
          -0.83294283631 0.43919943438 0.5200353072 -0.91225352173 0.48136728895 0.61603007989
          -0.23549059186 -0.11284437417 -0.20598692323 -0.31565078964 -0.070278649096 -0.10704373189
          -0.39451140109 -0.02750902902 -0.0080931825966 -0.47453746301 0.015288034737 0.085836579249
          -0.5568381845 0.057698022995 0.18292033779 -0.63889231915 0.1106294475 0.27988840806
          -0.71637963089 0.15419244203 0.37936438235 -0.79667410635 0.19531575464 0.47481853868
          -0.87691673554 0.24008080929 0.57189456752 -0.95612714351 0.27814451591 0.67025112433
          -0.28002828767 -0.31202995231 -0.15707700068 -0.35639630308 -0.26904520677 -0.056791917631
          -0.43861178121 -0.22920778841 0.038458575926 -0.51688404901 -0.19007368476 0.13932866437
          -0.59504741456 -0.14260479406 0.23540951059 -0.67808221997 -0.09109798493 0.33245921639
          -0.75930459154 -0.048785115679 0.43054151073 -0.8363463708 -0.00039296623353 0.53026678331
          -0.91890782324 0.041060526662 0.62578451536 -1.0010186263 0.082169102243 0.71986260206
          0.1975929563 1.4288713091 -0.74912482721 0.11648462403 1.4720145432 -0.65152689842
          0.039488709253 1.5177159906 -0.55722953354 -0.038302848462 1.5555148666 -0.4526818465
          -0.11767258993 1.6024475193 -0.36046612513 -0.19812447763 1.6461568181 -0.26476544254
          -0.27840385647 1.6870696621 -0.16624476934 -0.35639853245 1.7340786927 -0.068783291936
          -0.43699811809 1.7776003838 0.027918668056 -0.51403206591 1.8272818944 0.12248617748
          0.15731034964 1.231248452 -0.69554122733 0.07637760063 1.2724202741 -0.59795198198
          -0.00291397475 1.315813804 -0.50131980732 -0.083845848923 1.3589340722 -0.40348704493
          -0.16086594186 1.4042297431 -0.30747290697 -0.24007150914 1.4473007061 -0.20982362275
          -0.32094825414 1.4905952672 -0.11325479166 -0.39997060637 1.5344525746 -0.015777293762
          -0.47891017945 1.5783346439 0.081887467446 -0.55839445527 1.6207471172 0.18072035961
          0.1144319048 1.0303770056 -0.64161167205 0.033119498721 1.0739699067 -0.54632661233
          -0.045125074763 1.1168141296 -0.44789096339 -0.12580717163 1.1606937925 -0.35126051102
          -0.20504916606 1.2052436352 -0.25353670525 -0.28451858902 1.249227903 -0.15799850761
          -0.36287822121 1.2926471202 -0.059830313628 -0.44149356464 1.3352438488 0.038036309784
          -0.52126337168 1.3791723479 0.13437299749 -0.60096827083 1.4219852625 0.23008807497
          0.069328874802 0.83461541808 -0.59019497634 -0.0071610035885 0.87570571701 -0.48838799247
          -0.087200382743 0.91795878667 -0.39471346575 -0.1664561429 0.96147162017 -0.29763298753
          -0.24622402295 1.0054103249 -0.2010036919 -0.32562016512 1.0495282957 -0.103870616
          -0.40604109905 1.092404949 -0.0072227227761 -0.48415633056 1.1364832633 0.091182631863
          -0.56509950215 1.1806248535 0.18743966065 -0.64485592686 1.2270625697 0.28585451388
          0.029290604768 0.63173004655 -0.53657851813 -0.051322208715 0.67747291851 -0.43890708205
          -0.12864690778 0.71865317478 -0.34101412316 -0.20913841297 0.76241025287 -0.2461213826
          -0.28858254865 0.80600291483 -0.14759198203 -0.36782980225 0.85057339534 -0.050485598332
          -0.44660160787 0.89577212893 0.047493923936 -0.52649645407 0.93683922323 0.14417508963
          -0.60650535422 0.98422015513 0.24152280194 -0.68565104428 1.025467716 0.33954464288
          -0.013142821955 0.43283230417 -0.48393773328 -0.093000948263 0.4782146273 -0.38541681817
          -0.17234076776 0.51975368456 -0.28706165487 -0.25123784308 0.56302401432 -0.19059208147
          -0.3304724933 0.60544651515 -0.094948266801 -0.41220932823 0.65382900454 0.0026271351675
          -0.48945658217 0.69525234606 0.10022900259 -0.57012984394 0.7376919782 0.19653614355
          -0.64988055755 0.78412476826 0.293747158 -0.72886338224 0.82709409697 0.39146095691
          -0.054634693334 0.23441528603 -0.43081927049 -0.13402593359 0.27669824451 -0.33272949215
          -0.21367013893 0.32173908784 -0.23552073412 -0.29297406696 0.3631073056 -0.13783018356
          -0.3711451916 0.40610873903 -0.039912001817 -0.4534941616 0.45274067071 0.055012933459
          -0.5333385487 0.49770258148 0.15314844038 -0.6126537678 0.54121065312 0.24977887652
          -0.69329685443 0.58366309785 0.34701996774 -0.77073535212 0.62717101201 0.44559269684
          -0.097270342196 0.033705647764 -0.37787215264 -0.17646873716 0.07842791413 -0.28148806183
          -0.25113296192 0.12268533352 -0.18551394457 -0.33574417098 0.1628014344 -0.086664837481
          -0.4147054078 0.20520174895 0.011720465865 -0.49555376054 0.25551561211 0.10998304559
          -0.57650010965 0.29962880907 0.20662231717 -0.65277748087 0.34376656956 0.30246613807
          -0.73418208903 0.38708010833 0.40180472922 -0.81473950628 0.42793489879 0.49628288058
          -0.13860977034 -0.16465128728 -0.32647363709 -0.21781541647 -0.12173503678 -0.22782963267
          -0.29750497943 -0.080655355393 -0.13153790719 -0.37741472395 -0.036331042256 -0.033613083534
          -0.45602587731 0.0060637339027 0.065577102727 -0.54019287474 0.056579157733 0.16084421859
          -0.61938975673 0.10159356863 0.25982276411 -0.69784712191 0.14286991569 0.35808888777
          -0.77910207716 0.18543705078 0.45180629079 -0.85666574431 0.23046890108 0.55006965731
          -0.18054968165 -0.36511735713 -0.27585536183 -0.26125919457 -0.32096239409 -0.17788422416
          -0.34038354746 -0.27831904867 -0.075962190463 -0.41888947703 -0.23450266945 0.021149044613
          -0.49719958074 -0.19517182543 0.11653696468 -0.58126473448 -0.14338305437 0.21465750433
          -0.66294447323 -0.098543715745 0.30971055546 -0.74234583502 -0.05651666792 0.40943780708
          -0.82076736673 -0.011222805766 0.50483921389 -0.90194393833 0.031036367754 0.60221655101
          0.29168020571 1.3732362968 -0.87176871568 0.21778225175 1.4237723401 -0.77207242133
          0.13532176336 1.4635467698 -0.6766441919 0.058423776506 1.5076846792 -0.5769238398
          -0.021833332789 1.5529231036 -0.48188404155 -0.1020647817 1.5944812289 -0.38257478335
          -0.18025057242 1.6381008029 -0.28457158628 -0.26060565437 1.6817544679 -0.18646721597
          -0.33919325066 1.726503508 -0.094922248506 -0.42157058328 1.7699118699 0.012378278034
          0.2519708614 1.1745425395 -0.814978754 0.17450839969 1.2218155408 -0.71788864321
          0.094198143923 1.2638687451 -0.62108281305 0.016125300006 1.308193308 -0.52423258726
          -0.064166581409 1.3518506139 -0.42733855189 -0.14360536886 1.3952947619 -0.3296020015
          -0.22076590852 1.4383285778 -0.2302272883 -0.30151471292 1.4830950036 -0.13483652563
          -0.38127017489 1.5255880532 -0.038870290956 -0.46135169666 1.5706419675 0.058235455657
          0.21203823515 0.97953478222 -0.7662143778 0.13225189874 1.0220898825 -0.6640651798
          0.051487567084 1.065256263 -0.56908221596 -0.027071234486 1.1092013543 -0.470670495
          -0.10636139428 1.1527621938 -0.37353882636 -0.18563471532 1.1968144404 -0.27631056722
          -0.2652801939 1.2405085321 -0.17954927423 -0.34515577382 1.2847691724 -0.081677680858
          -0.42367034697 1.3271532932 0.015659129243 -0.50169426742 1.3732482076 0.11282262445
          0.16859185454 0.77927443832 -0.70956865827 0.089296142298 0.82235705499 -0.61123607436
          0.0097952707045 0.86647906882 -0.51295793361 -0.069177444117 0.90954334475 -0.41719551476
          -0.14889607607 0.95321463082 -0.3202075954 -0.2282939651 0.99715615592 -0.22323881788
          -0.30777127641 1.0410265649 -0.12595495994 -0.38813004876 1.0841706759 -0.029394816269
          -0.46676126721 1.127832875 0.067972337997 -0.54601953953 1.1707771065 0.16624446541
          0.13183223372 0.57844236374 -0.65576239536 0.047622568767 0.62321747935 -0.55885034533
          -0.032310760663 0.66713192118 -0.46236210309 -0.11145444641 0.70981719125 -0.36158299449
          -0.19072414136 0.75425934431 -0.26747445254 -0.27029334026 0.79859728785 -0.16993879813
          -0.35000522624 0.841811379 -0.07262791872 -0.43055077608 0.885293642 0.023931214897
          -0.50958574563 0.92806046852 0.12246121076 -0.58767082416 0.96890928308 0.21596424792
          0.085088644506 0.38124239764 -0.60439828239 0.0056064183642 0.42432168518 -0.50694705679
          -0.07380452137 0.46773563284 -0.4079649256 -0.15302908322 0.5110286744 -0.31001715853
          -0.23298250102 0.55515909915 -0.2132704225 -0.31285925073 0.60001925599 -0.11565218337