<?xml version="1.0"?>
<VTKFile type="UnstructuredGrid" version="0.1" byte_order="LittleEndian" compressor="vtkZLibDataCompressor">
  <UnstructuredGrid>
    <FieldData>
      <DataArray type="Float64" Name="TIME" NumberOfTuples="1" format="ascii" RangeMin="0.72073751938" RangeMax="0.72073751938">
        0.72073751938
      </DataArray>
    </FieldData>
    <Piece NumberOfPoints="1000" NumberOfCells="0">
      <PointData>
        <DataArray type="Float64" Name="Damage" format="ascii" RangeMin="0" RangeMax="0.50406504065">
          0 0 0 0 0 0
          0 0 0 0 0 0.027932960894
          0 0 0 0 0 0
          0.027932960894 0 0 0.055084745763 0.071428571429 0.040345821326
          0.014164305949 0.012987012987 0.040345821326 0.071428571429 0.055084745763 0
          0 0.067669172932 0.11239193084 0.1074168798 0.037688442211 0.034562211982
          0.1074168798 0.11239193084 0.067669172932 0 0 0.074349442379
          0.16147308782 0.16834170854 0.12376237624 0.11286681716 0.16834170854 0.16147308782
          0.074349442379 0 0 0.084459459459 0.2 0.25806451613
          0.33860045147 0.39211618257 0.25806451613 0.2 0.084459459459 0
          0 0.093984962406 0.25360230548 0.36061381074 0.41959798995 0.46774193548
          0.36061381074 0.25360230548 0.093984962406 0 0 0.10593220339
          0.31493506494 0.40057636888 0.4447592068 0.49090909091 0.40057636888 0.31493506494
          0.10593220339 0 0 0.17318435754 0.3686440678 0.43984962406
          0.44981412639 0.5 0.43984962406 0.3686440678 0.17318435754 0
          0.016129032258 0.18791946309 0.36734693878 0.44343891403 0.45535714286 0.50406504065
          0.44343891403 0.36734693878 0.18791946309 0.008064516129 0 0
          0 0 0 0 0 0
          0 0 0 0.027906976744 0 0
          0 0 0 0 0.027906976744 0
          0 0.056338028169 0.072776280323 0.040669856459 0.014117647059 0.012931034483
          0.040669856459 0.072776280323 0.056338028169 0 0 0.06875
          0.11483253589 0.10828025478 0.0375782881 0.034416826004 0.10828025478 0.11483253589
          0.06875 0 0 0.074303405573 0.16235294118 0.16910229645
          0.12371134021 0.11257035647 0.16910229645 0.16235294118 0.074303405573 0
          0 0.084269662921 0.20043103448 0.25812619503 0.33771106942 0.39242685026
          0.25812619503 0.20043103448 0.084269662921 0 0 0.09375
          0.25358851675 0.36093418259 0.41962421712 0.46845124283 0.36093418259 0.25358851675
          0.09375 0 0 0.10563380282 0.3153638814 0.4019138756
          0.44470588235 0.49137931034 0.4019138756 0.3153638814 0.10563380282 0
          0 0.16744186047 0.36971830986 0.440625 0.44582043344 0.49719101124
          0.440625 0.36971830986 0.16744186047 0 0.013422818792 0.17877094972
          0.3686440678 0.43984962406 0.44609665428 0.49662162162 0.43984962406 0.3686440678
          0.17318435754 0 0 0 0 0
          0 0 0 0 0 0
          0 0.024647887324 0 0 0 0
          0 0 0.024647887324 0 0 0.051212938005
          0.06875 0.038817005545 0.012635379061 0.011666666667 0.038817005545 0.06875
          0.051212938005 0 0 0.064593301435 0.10905730129 0.10491803279
          0.036858974359 0.034023668639 0.10491803279 0.10905730129 0.064593301435 0
          0 0.070588235294 0.15523465704 0.16506410256 0.12283464567 0.11271676301
          0.16506410256 0.15523465704 0.070588235294 0 0 0.081896551724
          0.19333333333 0.25443786982 0.33959537572 0.38985313752 0.25443786982 0.19333333333
          0.081896551724 0 0 0.093301435407 0.24768946396 0.35573770492
          0.41987179487 0.46449704142 0.35573770492 0.24768946396 0.093301435407 0
          0 0.10781671159 0.30833333333 0.39556377079 0.4440433213 0.48666666667
          0.39556377079 0.30833333333 0.10781671159 0 0 0.16197183099
          0.35579514825 0.43062200957 0.44470588235 0.49137931034 0.43062200957 0.35579514825
          0.16197183099 0 0 0.16101694915 0.3538961039 0.42939481268
          0.4447592068 0.49090909091 0.42939481268 0.3538961039 0.16101694915 0
          0 0 0 0 0 0
          0 0 0 0 0 0.025
          0 0 0 0 0 0
          0.025 0 0 0.05023923445 0.068391866913 0.039344262295
          0.012820512821 0.011834319527 0.039344262295 0.068391866913 0.05023923445 0
          0 0.063694267516 0.10819672131 0.10465116279 0.036984352774 0.034120734908
          0.10465116279 0.10819672131 0.063694267516 0 0 0.070981210856
          0.15544871795 0.16500711238 0.12290502793 0.11282051282 0.16500711238 0.15544871795
          0.070981210856 0 0 0.082217973231 0.19378698225 0.25459317585
          0.33974358974 0.38981042654 0.25459317585 0.19378698225 0.082217973231 0
          0 0.093418259023 0.24918032787 0.35610465116 0.41963015647 0.46456692913
          0.35610465116 0.24918032787 0.093418259023 0 0 0.10765550239
          0.30868761553 0.39508196721 0.44391025641 0.48668639053 0.39508196721 0.30868761553
          0.10765550239 0 0 0.1625 0.35645933014 0.43099787686
          0.44467640919 0.4913957935 0.43099787686 0.35645933014 0.1625 0
          0 0.16165413534 0.35446685879 0.42966751918 0.44472361809 0.49078341014
          0.42966751918 0.35446685879 0.16165413534 0 0 0
          0 0 0 0 0 0
          0 0 0 0.02786377709 0 0
          0 0 0 0 0.02786377709 0
          0 0.054117647059 0.070397111913 0.040064102564 0.014173228346 0.013005780347
          0.040064102564 0.070397111913 0.054117647059 0 0 0.066805845511
          0.11057692308 0.106685633 0.037709497207 0.034615384615 0.106685633 0.11057692308
          0.066805845511 0 0 0.074226804124 0.16062992126 0.16759776536
          0.12362637363 0.11292346299 0.16759776536 0.16062992126 0.074226804124 0
          0 0.084427767355 0.19942196532 0.25769230769 0.33877038896 0.39145496536
          0.25769230769 0.19942196532 0.084427767355 0 0 0.093945720251
          0.25320512821 0.35988620199 0.41899441341 0.46666666667 0.35988620199 0.25320512821
          0.093945720251 0 0 0.10588235294 0.31407942238 0.39903846154
          0.44409448819 0.48988439306 0.39903846154 0.31407942238 0.10588235294 0
          0 0.16718266254 0.36705882353 0.43841336117 0.44536082474 0.49530956848
          0.43841336117 0.36705882353 0.16718266254 0 0 0.16728624535
          0.36543909348 0.43718592965 0.44554455446 0.49435665914 0.43718592965 0.36543909348
          0.16728624535 0 0 0 0 0
          0 0 0 0 0 0
          0 0.025280898876 0 0 0 0
          0 0 0.025280898876 0 0 0.049568965517
          0.066666666667 0.038461538462 0.013005780347 0.012016021362 0.038461538462 0.066666666667
          0.049568965517 0 0 0.06309751434 0.1050295858 0.10367454068
          0.037179487179 0.034360189573 0.10367454068 0.1050295858 0.06309751434 0
          0 0.071294559099 0.15462427746 0.1641025641 0.12296110414 0.11316397229
          0.1641025641 0.15462427746 0.071294559099 0 0 0.082616179002
          0.19359145527 0.25473933649 0.34064665127 0.38930481283 0.25473933649 0.19359145527
          0.082616179002 0 0 0.093690248566 0.24852071006 0.35564304462
          0.41923076923 0.46327014218 0.35564304462 0.24852071006 0.093690248566 0
          0 0.10775862069 0.30833333333 0.39349112426 0.4436416185 0.48598130841
          0.39349112426 0.30833333333 0.10775862069 0 0 0.16292134831
          0.35560344828 0.43021032505 0.44465290807 0.49053356282 0.43021032505 0.35560344828
          0.16292134831 0 0 0.16216216216 0.35324675325 0.42857142857
          0.44469525959 0.48962655602 0.42857142857 0.35324675325 0.16216216216 0
          0 0 0 0 0 0
          0 0 0 0 0 0.025
          0 0 0 0 0 0
          0.025 0 0 0.05023923445 0.068391866913 0.039344262295
          0.012820512821 0.011834319527 0.039344262295 0.068391866913 0.05023923445 0
          0 0.063694267516 0.10819672131 0.10465116279 0.036984352774 0.034120734908
          0.10465116279 0.10819672131 0.063694267516 0 0 0.070981210856
          0.15544871795 0.16500711238 0.12290502793 0.11282051282 0.16500711238 0.15544871795
          0.070981210856 0 0 0.082217973231 0.19378698225 0.25459317585
          0.33974358974 0.38981042654 0.25459317585 0.19378698225 0.082217973231 0
          0 0.093418259023 0.24918032787 0.35610465116 0.41963015647 0.46456692913
          0.35610465116 0.24918032787 0.093418259023 0 0 0.10765550239
          0.30868761553 0.39508196721 0.44391025641 0.48668639053 0.39508196721 0.30868761553
          0.10765550239 0 0 0.1625 0.35645933014 0.43099787686
          0.44467640919 0.4913957935 0.43099787686 0.35645933014 0.1625 0
          0 0.16165413534 0.35446685879 0.42966751918 0.44472361809 0.49078341014
          0.42966751918 0.35446685879 0.16165413534 0 0 0
          0 0 0 0 0 0
          0 0 0 0.024647887324 0 0
          0 0 0 0 0.024647887324 0
          0 0.051212938005 0.06875 0.038817005545 0.012635379061 0.011666666667
          0.038817005545 0.06875 0.051212938005 0 0 0.064593301435
          0.10905730129 0.10491803279 0.036858974359 0.034023668639 0.10491803279 0.10905730129
          0.064593301435 0 0 0.070588235294 0.15523465704 0.16506410256
          0.12283464567 0.11271676301 0.16506410256 0.15523465704 0.070588235294 0
          0 0.081896551724 0.19333333333 0.25443786982 0.33959537572 0.38985313752
          0.25443786982 0.19333333333 0.081896551724 0 0 0.093301435407
          0.24768946396 0.35573770492 0.41987179487 0.46449704142 0.35573770492 0.24768946396
          0.093301435407 0 0 0.10781671159 0.30833333333 0.39556377079
          0.4440433213 0.48666666667 0.39556377079 0.30833333333 0.10781671159 0
          0 0.16197183099 0.35579514825 0.43062200957 0.44470588235 0.49137931034
          0.43062200957 0.35579514825 0.16197183099 0 0 0.16101694915
          0.3538961039 0.42939481268 0.4447592068 0.49090909091 0.42939481268 0.3538961039
          0.16101694915 0 0 0 0 0
          0 0 0 0 0 0
          0 0.027906976744 0 0 0 0
          0 0 0.027906976744 0 0 0.056338028169
          0.072776280323 0.040669856459 0.014117647059 0.012931034483 0.040669856459 0.072776280323
          0.056338028169 0 0 0.06875 0.11483253589 0.10828025478
          0.0375782881 0.034416826004 0.10828025478 0.11483253589 0.06875 0
          0 0.074303405573 0.16235294118 0.16910229645 0.12371134021 0.11257035647
          0.16910229645 0.16235294118 0.074303405573 0 0 0.084269662921
          0.20043103448 0.25812619503 0.33771106942 0.39242685026 0.25812619503 0.20043103448
          0.084269662921 0 0 0.09375 0.25358851675 0.36093418259
          0.41962421712 0.46845124283 0.36093418259 0.25358851675 0.09375 0
          0 0.10563380282 0.3153638814 0.4019138756 0.44470588235 0.49137931034
          0.4019138756 0.3153638814 0.10563380282 0 0 0.16744186047
          0.36971830986 0.440625 0.44582043344 0.49719101124 0.440625 0.36971830986
          0.16744186047 0 0 0.16759776536 0.3686440678 0.43984962406
          0.44609665428 0.49662162162 0.43984962406 0.3686440678 0.17318435754 0
          0 0 0 0 0 0
          0 0 0 0 0 0.027932960894
          0 0 0 0 0 0
          0.027932960894 0 0 0.055084745763 0.071428571429 0.040345821326
          0.014164305949 0.012987012987 0.040345821326 0.071428571429 0.055084745763 0
          0 0.067669172932 0.11239193084 0.1074168798 0.037688442211 0.034562211982
          0.1074168798 0.11239193084 0.067669172932 0 0 0.074349442379
          0.16147308782 0.16834170854 0.12376237624 0.11286681716 0.16834170854 0.16147308782
          0.074349442379 0 0 0.084459459459 0.2 0.25806451613
          0.33860045147 0.39211618257 0.25806451613 0.2 0.084459459459 0
          0 0.093984962406 0.25360230548 0.36061381074 0.41959798995 0.46774193548
          0.36061381074 0.25360230548 0.093984962406 0 0 0.10593220339
          0.31493506494 0.40057636888 0.4447592068 0.49090909091 0.40057636888 0.31493506494
          0.10593220339 0 0 0.16759776536 0.3686440678 0.43984962406
          0.44981412639 0.5 0.43984962406 0.3686440678 0.16759776536 0
          0.008064516129 0.1744966443 0.36734693878 0.43891402715 0.45089285714 0.5
          0.43891402715 0.36734693878 0.18120805369 0.008064516129
        </DataArray>
        <DataArray type="Float64" Name="Displacement" NumberOfComponents="3" format="ascii" RangeMin="1.0448668476" RangeMax="1.7531612509">
          0.093328727112 -1.296058278 -0.31324805673 0.081185488427 -1.2505227911 -0.31491195478
          0.079147531716 -1.2243669199 -0.30769887633 0.076345791658 -1.1988364545 -0.30027938168
          0.068845884158 -1.1551820544 -0.29793909957 0.06319950119 -1.1265546397 -0.29334573934
          0.062257989447 -1.101519287 -0.28550277565 0.055720928668 -1.0680834753 -0.28386630711
          0.051355881139 -1.0332247725 -0.27643047366 0.048786173746 -1.0202106927 -0.26830227185
          0.053846103379 -1.3020516806 -0.27198187509 0.049849595129 -1.2703308867 -0.27051919279
          0.04933400736 -1.238113164 -0.26760697297 0.044477331854 -1.2077665991 -0.26271311688
          0.038656278887 -1.1762738842 -0.25722909303 0.034268568594 -1.1419356842 -0.25269831024
          0.030571875816 -1.1127652605 -0.24713229943 0.024201406015 -1.0823119997 -0.24174024883
          0.024462542583 -1.0493129976 -0.23499368888 0.020338807189 -1.0194603804 -0.228108735
          0.023106942611 -1.3104293564 -0.23557933464 0.022370133879 -1.2829889999 -0.23295719096
          0.016448885748 -1.2515923803 -0.22767005437 0.013745020077 -1.2199528518 -0.22292497559
          0.0081809310212 -1.1886370795 -0.21817469736 0.003858079741 -1.1583613393 -0.21274732283
          -0.00091463887548 -1.1256792198 -0.20780143635 -0.0039686234048 -1.094880658 -0.20231624564
          -0.0096998366603 -1.0654719599 -0.19789154112 -0.014050111322 -1.0288857766 -0.19092803876
          -0.0047928913235 -1.3253786388 -0.19833785822 -0.010029858938 -1.2944633448 -0.19184255103
          -0.013948761424 -1.2623708505 -0.18860044026 -0.018332192983 -1.2319415901 -0.18388656094
          -0.02321353639 -1.2005309776 -0.17930679522 -0.026583984261 -1.1697459823 -0.17443439112
          -0.031513245371 -1.1379670162 -0.16885971833 -0.036357140756 -1.1060602871 -0.16347599061
          -0.040225061923 -1.074464544 -0.1565533657 -0.045071616541 -1.0425256409 -0.15245103358
          -0.034118187875 -1.3381567315 -0.15932079272 -0.040848292118 -1.3067924134 -0.1542401523
          -0.044825822238 -1.2742309113 -0.14965253905 -0.048777312995 -1.24364918 -0.14543157927
          -0.054298634775 -1.2130884573 -0.14093106135 -0.057582019064 -1.1822582327 -0.13650919537
          -0.062932425758 -1.1498823023 -0.13069118642 -0.067657422263 -1.1178491724 -0.12518462757
          -0.071841445956 -1.0867127888 -0.11934208654 -0.077064319139 -1.0570010746 -0.11379467913
          -0.067216552937 -1.3500167339 -0.11926415513 -0.072189330056 -1.318078624 -0.11368293128
          -0.07596021469 -1.2865831661 -0.11005904856 -0.080850982128 -1.2556771235 -0.10533807891
          -0.086068705004 -1.2245876495 -0.10273461205 -0.087617999596 -1.1931451013 -0.099308169522
          -0.092921887961 -1.1614648472 -0.090921247265 -0.098645490705 -1.1300048545 -0.085299157291
          -0.10373564509 -1.0983531964 -0.079336931652 -0.10712204295 -1.0673262123 -0.074049689587
          -0.099579572074 -1.3621858957 -0.078767975013 -0.10204491857 -1.3294277483 -0.075192488513
          -0.10771579616 -1.2981838242 -0.070789104245 -0.11012134533 -1.266280686 -0.066630983175
          -0.11371605488 -1.2361310804 -0.063359137195 -0.1203968678 -1.205317252 -0.060343005258
          -0.12706084286 -1.1729487955 -0.051378797116 -0.12877107749 -1.1413179378 -0.04574309899
          -0.13577354134 -1.1101156289 -0.041294386987 -0.13795756473 -1.0785049369 -0.033022700914
          -0.12862007727 -1.3747290638 -0.040258093768 -0.13155808649 -1.3403245662 -0.037403855728
          -0.13547190423 -1.3078931453 -0.031313495533 -0.14205667754 -1.2784630253 -0.028553778012
          -0.14272517774 -1.2483110293 -0.022455322385 -0.15558842262 -1.2205155293 -0.017526384828
          -0.15542774828 -1.1848895833 -0.014645813865 -0.1626309196 -1.1529824964 -0.0068319606437
          -0.16827982262 -1.1222676215 -0.0028766073633 -0.17086056403 -1.092212854 0.0043801083846
          -0.15812445524 -1.3794878781 0.00030851292537 -0.16453908246 -1.3521589115 0.0048541606184
          -0.16763789176 -1.3207240051 0.0070455630141 -0.16999176274 -1.2888771208 0.01318376477
          -0.17100592666 -1.2599452396 0.015383914085 -0.18936360272 -1.2323389826 0.020180428354
          -0.19174715924 -1.1985603415 0.026234081216 -0.19339489537 -1.1652417215 0.030205884647
          -0.19669295434 -1.133802796 0.038487756141 -0.20689784284 -1.0983616889 0.044746825802
          -0.19235435867 -1.4000840645 0.040634386327 -0.19026991984 -1.3730845477 0.026803282741
          -0.19550544227 -1.332822217 0.044271988686 -0.19820612026 -1.3035276478 0.048158073599
          -0.19520954483 -1.2755712326 0.0461662998 -0.22473795237 -1.2592414259 0.043536420017
          -0.21909505618 -1.2113604123 0.057490794525 -0.22756693787 -1.1798671664 0.065885115797
          -0.23018912121 -1.154022192 0.062766634652 -0.23259793514 -1.1187480089 0.081782080753
          0.091029669041 -1.3262579782 -0.32431025042 0.091536091837 -1.2945428725 -0.32191390747
          0.088999663289 -1.2665667685 -0.31397831858 0.082188815159 -1.2377265364 -0.30697160995
          0.076999617398 -1.205201897 -0.30185490547 0.073006156908 -1.1755223682 -0.29570182091
          0.068249040854 -1.1423845567 -0.29237797534 0.061036613509 -1.112235172 -0.28868231523
          0.055971682784 -1.0790213526 -0.28455384628 0.054505661799 -1.0423207777 -0.27767227192
          0.063887487452 -1.338623741 -0.2837127298 0.062526828441 -1.3103514277 -0.27846014185
          0.05516046115 -1.2771857702 -0.27484924351 0.050399323839 -1.2472871147 -0.26949221253
          0.046235705062 -1.2151020809 -0.26439494112 0.040993037791 -1.184509448 -0.25913882015
          0.03713159224 -1.1526790413 -0.25416442479 0.031595702019 -1.1209482856 -0.24921201887
          0.025817377228 -1.0926605201 -0.24272150025 0.023837505466 -1.0565547785 -0.23765152484
          0.032796181885 -1.3533138684 -0.242708342 0.028500999611 -1.3213940376 -0.23938593692
          0.023716440761 -1.2893316059 -0.23553213105 0.019313185655 -1.2590568072 -0.23037879855
          0.014405325809 -1.2279365547 -0.22532050868 0.010375362028 -1.1956928002 -0.22029297651
          0.0058137067054 -1.1648952144 -0.21528443856 0.0011758064386 -1.13318173 -0.20989469418
          -0.0038639113526 -1.1030064311 -0.2042772295 -0.008056173759 -1.0716971059 -0.19795193115
          0.0011686244126 -1.366085579 -0.20319997105 -0.002117704416 -1.332745185 -0.20017651953
          -0.007592172143 -1.3018254749 -0.19544795914 -0.011892899628 -1.2704729467 -0.19073913632
          -0.016076148419 -1.2395987096 -0.18660571071 -0.020672413462 -1.208358211 -0.18138041652
          -0.025107769273 -1.1763941169 -0.17570014549 -0.029775915555 -1.1450378311 -0.17017501836
          -0.035085169582 -1.1139646896 -0.16537531165 -0.037869521137 -1.0830426793 -0.15757283413
          -0.028756328068 -1.3749897157 -0.16596362484 -0.033609446859 -1.3442850978 -0.16118099205
          -0.038340399127 -1.31412171 -0.15655996694 -0.042891122596 -1.2821443714 -0.15247064364
          -0.047483659485 -1.2512611208 -0.14758000783 -0.051932036726 -1.2198990286 -0.1426704572
          -0.056536949943 -1.1881144054 -0.13789656509 -0.060697817508 -1.157666871 -0.13118591531
          -0.065919290232 -1.1254140234 -0.12639740038 -0.071113141499 -1.0921631128 -0.11940151321
          -0.06085423378 -1.3882173482 -0.12534396876 -0.064854184466 -1.356237091 -0.12258413234
          -0.069334516442 -1.3255293359 -0.11739760056 -0.073427083851 -1.2936324021 -0.11394443654
          -0.07889075561 -1.2628365124 -0.10920599401 -0.082985510282 -1.2317630036 -0.10450693553
          -0.088158824913 -1.2001041048 -0.098460326887 -0.092297137413 -1.168950774 -0.092146227653
          -0.097084031134 -1.1370392951 -0.087485722775 -0.10028400794 -1.1054982872 -0.078626576133
          -0.090078421036 -1.3992096638 -0.087740167519 -0.094855685772 -1.3677449845 -0.083275897412
          -0.099358182072 -1.3362082793 -0.078186365753 -0.10321763604 -1.305614141 -0.073829734909
          -0.10852117512 -1.2743248227 -0.069878544048 -0.1149975436 -1.2439820079 -0.066028450268
          -0.11998427081 -1.2126944123 -0.059281629618 -0.12472995425 -1.1804203595 -0.053979468344
          -0.12899416403 -1.1490991594 -0.048400397385 -0.13403913126 -1.1176718707 -0.042730896642
          -0.1218950825 -1.4109402207 -0.048144547481 -0.12642231666 -1.380122006 -0.044489723737
          -0.12948710845 -1.3480714197 -0.03974949801 -0.13434423098 -1.3174647796 -0.035092778361
          -0.14064778274 -1.286730231 -0.03108860537 -0.14598259964 -1.2564300461 -0.026167323612
          -0.15156412626 -1.2246600816 -0.021016271883 -0.15638592544 -1.1927449728 -0.015292961037
          -0.15963984023 -1.1613595247 -0.0094275626015 -0.16525765766 -1.129439775 -0.0034863018337
          -0.15231478924 -1.4222570283 -0.0083920860403 -0.15514557428 -1.3891484251 -0.004777986691
          -0.15974319637 -1.3597276769 -0.00078056287665 -0.16328936375 -1.3290404133 0.0043586506517
          -0.16815796473 -1.2989577759 0.0091446139315 -0.17973279066 -1.2700942559 0.013534892389
          -0.18507527589 -1.2377501372 0.017527225516 -0.18876270754 -1.2048323565 0.023584187311
          -0.19351330732 -1.1720594819 0.029237285188 -0.19608259453 -1.1412887838 0.036387715726
          -0.18169557046 -1.4323313438 0.029547682971 -0.19067762143 -1.4053740669 0.032243003331
          -0.19353614023 -1.3721733162 0.036010076291 -0.1980235902 -1.3403503302 0.041064390206
          -0.20185467503 -1.3120597621 0.044068824247 -0.2090513441 -1.2799874677 0.047723119705
          -0.21377618363 -1.2492101518 0.053239584497 -0.2178135322 -1.2165555002 0.059482284256
          -0.21852429476 -1.1852368751 0.067219927516 -0.23074199043 -1.1527707822 0.072886152001
          0.096485330667 -1.3646978247 -0.32763340986 0.099837644144 -1.3379426082 -0.32539241727
          0.09423991105 -1.3048816844 -0.31982204844 0.089062438747 -1.2758268818 -0.31331789311
          0.08311442889 -1.2422689277 -0.31065414397 0.078577558033 -1.2106461958 -0.30461369349
          0.074599380448 -1.1824735508 -0.29853368621 0.068478836849 -1.1496560988 -0.29570003127
          0.06470930389 -1.1195392376 -0.28972049021 0.065713815817 -1.0816042747 -0.2826498427
          0.068083671732 -1.3786396008 -0.28935180575 0.066831089075 -1.3492869392 -0.28661068691
          0.060802054433 -1.3165466793 -0.28154036455 0.056237782947 -1.2849979976 -0.27641992404
          0.051990420061 -1.2545373598 -0.27136985291 0.047950931136 -1.2226211776 -0.26612306792
          0.043292495147 -1.1915885424 -0.26108596771 0.038701136079 -1.1603508741 -0.25601417067
          0.033989494147 -1.13078942 -0.25128847537 0.031127173839 -1.095855122 -0.24265646233
          0.039664642228 -1.3905671317 -0.25275835639 0.035035224466 -1.3598280598 -0.24607198609
          0.030374357591 -1.3285800464 -0.24210380155 0.025496801812 -1.2971963403 -0.23742518918
          0.021311406156 -1.2665138999 -0.23243414027 0.016747547489 -1.2350804998 -0.22738290453
          0.012292514269 -1.2033279661 -0.22205170516 0.0076007597555 -1.1720793018 -0.21663122597
          0.0026949839837 -1.1410324208 -0.21096701293 -0.0026210853387 -1.1097575163 -0.20673313839
          0.0087239923948 -1.4025717991 -0.21237409238 0.0037573640836 -1.3711757922 -0.20784644907
          -0.00037456458085 -1.3402326966 -0.20310802369 -0.0050713412331 -1.308542684 -0.19838713696
          -0.0099353493974 -1.2781904574 -0.19379018874 -0.014389177501 -1.2468691443 -0.1886693098
          -0.019558939799 -1.2149457326 -0.18344305367 -0.023788992522 -1.1839287924 -0.17782074554
          -0.02840130247 -1.1521134507 -0.17251315712 -0.033148129976 -1.1217142673 -0.16655996707
          -0.022348465236 -1.4140163224 -0.17309178727 -0.026122018288 -1.3828038893 -0.16835973226
          -0.031015656688 -1.3518671486 -0.16399076764 -0.03605738702 -1.3205882302 -0.15933058394
          -0.040953037189 -1.2899521291 -0.15481653899 -0.045639497253 -1.258458399 -0.14972270716
          -0.050436864513 -1.2269671895 -0.14432302183 -0.055475789643 -1.1957378517 -0.13903314606
          -0.060343573765 -1.1642048686 -0.13350842585 -0.064856017924 -1.1324921266 -0.12781255589
          -0.052843892358 -1.425037569 -0.13317329342 -0.057216152457 -1.3942886245 -0.12943770427
          -0.062317200902 -1.363498021 -0.1249064196 -0.066909480908 -1.3325460397 -0.12060112783
          -0.071067180262 -1.3015163604 -0.11483606182 -0.077046755593 -1.2706283163 -0.11064290071
          -0.081508494969 -1.238976117 -0.10584418101 -0.086537250618 -1.2073650309 -0.10002144008
          -0.091840792738 -1.1758384419 -0.094528415838 -0.09685215687 -1.1437480024 -0.088139599801
          -0.083997563623 -1.4372724078 -0.09473557828 -0.088889948812 -1.4067632018 -0.090389912623
          -0.093447452461 -1.375585563 -0.08576675241 -0.098042842337 -1.3444455059 -0.080995822798
          -0.10236536526 -1.3123025542 -0.077162628747 -0.10889547104 -1.2820062003 -0.072724228258
          -0.11299227511 -1.2508312356 -0.066674737388 -0.11813208474 -1.219449922 -0.061033738562
          -0.12311659832 -1.1877400743 -0.055754508387 -0.12772146091 -1.1561462666 -0.049686810996
          -0.11413163379 -1.4484826185 -0.056794521363 -0.11884349332 -1.4181272349 -0.051915188652
          -0.12298727566 -1.3866619212 -0.047729468228 -0.12837727657 -1.3558805211 -0.041569790699
          -0.13158573169 -1.3258756119 -0.03805687759 -0.14101808234 -1.2962199451 -0.033710194185
          -0.14478772798 -1.2629345215 -0.027297290605 -0.1501582524 -1.2308761077 -0.022586955074
          -0.15474777281 -1.1996194179 -0.017278793705 -0.15989445229 -1.1675732295 -0.011926734172
          -0.14560956565 -1.4614797567 -0.017327477985 -0.14942237796 -1.4294092473 -0.012974814789
          -0.15427318142 -1.3978942989 -0.0072011507749 -0.15791590312 -1.3676516785 -0.0041585361034
          -0.16484990097 -1.3361412834 0.0013259904085 -0.17177287469 -1.3065249239 0.0061476187128
          -0.17715689521 -1.2755050164 0.010116057173 -0.18263781048 -1.2426103705 0.016838683129
          -0.18747391881 -1.2112114546 0.021479758461 -0.1897693545 -1.180759329 0.027787074736
          -0.1752030975 -1.4709517904 0.019587080626 -0.18162177385 -1.4415283339 0.02675666815
          -0.1833811508 -1.4087489535 0.03352193503 -0.19107938541 -1.3782802143 0.036682789964
          -0.19153137964 -1.3498635183 0.039189559544 -0.20548321806 -1.3218030629 0.042318247612
          -0.20745654978 -1.2851224029 0.049909574146 -0.2153932288 -1.2548207978 0.057260643983
          -0.21722347284 -1.2229538712 0.060755070822 -0.22407263976 -1.1907791402 0.0648209047
          0.11075985429 -1.4084377889 -0.33775103523 0.10413484426 -1.3767556031 -0.33292855934
          0.1000536377 -1.3435873096 -0.32630064339 0.093783055118 -1.3113057581 -0.32182281058
          0.08974082527 -1.2814611246 -0.3173033004 0.084845637116 -1.250673265 -0.31114136151
          0.080347545392 -1.2174752654 -0.30678139535 0.074591387282 -1.1885769088 -0.30105442432
          0.070998379652 -1.1571927975 -0.29741066033 0.064756872586 -1.1284503374 -0.29410464899
          0.076972267164 -1.4187826262 -0.29716351558 0.073434333877 -1.3869501065 -0.29360318936
          0.06747436652 -1.3554876556 -0.28844872325 0.063136032853 -1.3245493164 -0.28323832257
          0.058555462295 -1.2931817598 -0.27864143998 0.054114606561 -1.2618210661 -0.27336722716
          0.049606628867 -1.230507482 -0.26808410978 0.045221914626 -1.1986894991 -0.26327120276
          0.039612607479 -1.1680358005 -0.25829339222 0.035263466815 -1.1371656093 -0.25264259074
          0.045917521168 -1.4291460563 -0.25962196249 0.04141480335 -1.3985033259 -0.25369960444
          0.036770984736 -1.367421432 -0.24945992459 0.032128195029 -1.3360480044 -0.24449033853
          0.027722061983 -1.3050879427 -0.2395253788 0.023123743326 -1.2736594319 -0.23442375489
          0.018521036168 -1.2421850943 -0.22937376191 0.013932246649 -1.2108707162 -0.22416168085
          0.0089140445813 -1.1793570413 -0.21835129227 0.0043972008023 -1.1472035046 -0.2138661322
          0.014543449363 -1.4414881785 -0.2197672606 0.010182472292 -1.4097621352 -0.2146827441
          0.0057272139894 -1.3790370697 -0.21026524651 0.0011324876152 -1.3479510615 -0.20542430442
          -0.0033041449084 -1.3169145631 -0.20057705569 -0.0078777042957 -1.2856707936 -0.19566415873
          -0.012598089818 -1.2540563436 -0.19031859457 -0.017586592864 -1.2224274889 -0.18522577762
          -0.022471387642 -1.1905710454 -0.1796094915 -0.026763119916 -1.1592339884 -0.17454987233
          -0.015223877628 -1.4527941411 -0.18132606924 -0.020390498143 -1.422048439 -0.17571036544
          -0.02477142111 -1.3904908737 -0.171277281 -0.029455298991 -1.3595171379 -0.16644244623
          -0.034265931403 -1.3287638809 -0.16161729332 -0.038906816709 -1.2976033404 -0.1568071731
          -0.044167812707 -1.2655863522 -0.15148073612 -0.048715276402 -1.2343326553 -0.14633899125
          -0.053227371068 -1.2030997093 -0.14065163978 -0.058677641857 -1.1714351206 -0.13577869162
          -0.046525705155 -1.4644758347 -0.14155836313 -0.050466067193 -1.4330525286 -0.13685584531
          -0.055040645054 -1.4018393857 -0.13205972948 -0.060244206294 -1.3712543355 -0.1273619152
          -0.064323886624 -1.3401469964 -0.12272502246 -0.071235902124 -1.3094425249 -0.11817440242
          -0.075196991034 -1.277615735 -0.11270403158 -0.080604415425 -1.2460192526 -0.10727543403