<?xml version="1.0"?>
<VTKFile type="UnstructuredGrid" version="0.1" byte_order="LittleEndian" compressor="vtkZLibDataCompressor">
  <UnstructuredGrid>
    <FieldData>
      <DataArray type="Float64" Name="TIME" NumberOfTuples="1" format="ascii" RangeMin="1.0160983165" RangeMax="1.0160983165">
        1.0160983165
      </DataArray>
    </FieldData>
    <Piece NumberOfPoints="1000" NumberOfCells="0">
      <PointData>
        <DataArray type="Float64" Name="Damage" format="ascii" RangeMin="0" RangeMax="0.5081300813">
          0 0 0 0 0 0
          0 0 0 0 0 0.027932960894
          0 0 0 0 0 0
          0.027932960894 0 0 0.055084745763 0.071428571429 0.040345821326
          0.014164305949 0.012987012987 0.040345821326 0.071428571429 0.055084745763 0
          0 0.067669172932 0.11239193084 0.1074168798 0.037688442211 0.034562211982
          0.1074168798 0.11239193084 0.067669172932 0 0 0.074349442379
          0.16147308782 0.16834170854 0.12376237624 0.11286681716 0.16834170854 0.16147308782
          0.074349442379 0 0 0.084459459459 0.2 0.25806451613
          0.33860045147 0.39211618257 0.25806451613 0.2 0.084459459459 0
          0 0.093984962406 0.25360230548 0.36061381074 0.41959798995 0.46774193548
          0.36061381074 0.25360230548 0.093984962406 0 0 0.10593220339
          0.31493506494 0.40057636888 0.4447592068 0.49090909091 0.40057636888 0.31493506494
          0.10593220339 0 0 0.17318435754 0.3686440678 0.43984962406
          0.44981412639 0.5 0.43984962406 0.3686440678 0.17318435754 0
          0.016129032258 0.18791946309 0.36734693878 0.44343891403 0.46428571429 0.5081300813
          0.44343891403 0.36734693878 0.18791946309 0.008064516129 0 0
          0 0 0 0 0 0
          0 0 0 0.027906976744 0 0
          0 0 0 0 0.027906976744 0
          0 0.056338028169 0.072776280323 0.040669856459 0.014117647059 0.012931034483
          0.040669856459 0.072776280323 0.056338028169 0 0 0.06875
          0.11483253589 0.10828025478 0.0375782881 0.034416826004 0.10828025478 0.11483253589
          0.06875 0 0 0.074303405573 0.16235294118 0.16910229645
          0.12371134021 0.11257035647 0.16910229645 0.16235294118 0.074303405573 0
          0 0.084269662921 0.20043103448 0.25812619503 0.33771106942 0.39242685026
          0.25812619503 0.20043103448 0.084269662921 0 0 0.09375
          0.25358851675 0.36093418259 0.41962421712 0.46845124283 0.36093418259 0.25358851675
          0.09375 0 0 0.10563380282 0.3153638814 0.4019138756
          0.44470588235 0.49137931034 0.4019138756 0.3153638814 0.10563380282 0
          0 0.16744186047 0.36971830986 0.440625 0.44582043344 0.49719101124
          0.440625 0.36971830986 0.16744186047 0 0.013422818792 0.17877094972
          0.3686440678 0.44360902256 0.44981412639 0.5 0.43984962406 0.3686440678
          0.17877094972 0.006711409396 0 0 0 0
          0 0 0 0 0 0
          0 0.024647887324 0 0 0 0
          0 0 0.024647887324 0 0 0.051212938005
          0.06875 0.038817005545 0.012635379061 0.011666666667 0.038817005545 0.06875
          0.051212938005 0 0 0.064593301435 0.10905730129 0.10491803279
          0.036858974359 0.034023668639 0.10491803279 0.10905730129 0.064593301435 0
          0 0.070588235294 0.15523465704 0.16506410256 0.12283464567 0.11271676301
          0.16506410256 0.15523465704 0.070588235294 0 0 0.081896551724
          0.19333333333 0.25443786982 0.33959537572 0.38985313752 0.25443786982 0.19333333333
          0.081896551724 0 0 0.093301435407 0.24768946396 0.35573770492
          0.41987179487 0.46449704142 0.35573770492 0.24768946396 0.093301435407 0
          0 0.10781671159 0.30833333333 0.39556377079 0.4440433213 0.48666666667
          0.39556377079 0.30833333333 0.10781671159 0 0 0.16197183099
          0.35579514825 0.43062200957 0.44470588235 0.49137931034 0.43062200957 0.35579514825
          0.16197183099 0 0 0.16101694915 0.3538961039 0.42939481268
          0.4447592068 0.49090909091 0.42939481268 0.3538961039 0.16101694915 0
          0 0 0 0 0 0
          0 0 0 0 0 0.025
          0 0 0 0 0 0
          0.025 0 0 0.05023923445 0.068391866913 0.039344262295
          0.012820512821 0.011834319527 0.039344262295 0.068391866913 0.05023923445 0
          0 0.063694267516 0.10819672131 0.10465116279 0.036984352774 0.034120734908
          0.10465116279 0.10819672131 0.063694267516 0 0 0.070981210856
          0.15544871795 0.16500711238 0.12290502793 0.11282051282 0.16500711238 0.15544871795
          0.070981210856 0 0 0.082217973231 0.19378698225 0.25459317585
          0.33974358974 0.38981042654 0.25459317585 0.19378698225 0.082217973231 0
          0 0.093418259023 0.24918032787 0.35610465116 0.41963015647 0.46456692913
          0.35610465116 0.24918032787 0.093418259023 0 0 0.10765550239
          0.30868761553 0.39508196721 0.44391025641 0.48668639053 0.39508196721 0.30868761553
          0.10765550239 0 0 0.1625 0.35645933014 0.43099787686
          0.44467640919 0.4913957935 0.43099787686 0.35645933014 0.1625 0
          0 0.16165413534 0.35446685879 0.42966751918 0.44472361809 0.49078341014
          0.42966751918 0.35446685879 0.16165413534 0 0 0
          0 0 0 0 0 0
          0 0 0 0.02786377709 0 0
          0 0 0 0 0.02786377709 0
          0 0.054117647059 0.070397111913 0.040064102564 0.014173228346 0.013005780347
          0.040064102564 0.070397111913 0.054117647059 0 0 0.066805845511
          0.11057692308 0.106685633 0.037709497207 0.034615384615 0.106685633 0.11057692308
          0.066805845511 0 0 0.074226804124 0.16062992126 0.16759776536
          0.12362637363 0.11292346299 0.16759776536 0.16062992126 0.074226804124 0
          0 0.084427767355 0.19942196532 0.25769230769 0.33877038896 0.39145496536
          0.25769230769 0.19942196532 0.084427767355 0 0 0.093945720251
          0.25320512821 0.35988620199 0.41899441341 0.46666666667 0.35988620199 0.25320512821
          0.093945720251 0 0 0.10588235294 0.31407942238 0.39903846154
          0.44409448819 0.48988439306 0.39903846154 0.31407942238 0.10588235294 0
          0 0.16718266254 0.36705882353 0.43841336117 0.44536082474 0.49530956848
          0.43841336117 0.36705882353 0.16718266254 0 0 0.16728624535
          0.36543909348 0.43718592965 0.44554455446 0.49435665914 0.43718592965 0.36543909348
          0.16728624535 0 0 0 0 0
          0 0 0 0 0 0
          0 0.025280898876 0 0 0 0
          0 0 0.025280898876 0 0 0.049568965517
          0.066666666667 0.038461538462 0.013005780347 0.012016021362 0.038461538462 0.066666666667
          0.049568965517 0 0 0.06309751434 0.1050295858 0.10367454068
          0.037179487179 0.034360189573 0.10367454068 0.1050295858 0.06309751434 0
          0 0.071294559099 0.15462427746 0.1641025641 0.12296110414 0.11316397229
          0.1641025641 0.15462427746 0.071294559099 0 0 0.082616179002
          0.19359145527 0.25473933649 0.34064665127 0.38930481283 0.25473933649 0.19359145527
          0.082616179002 0 0 0.093690248566 0.24852071006 0.35564304462
          0.41923076923 0.46327014218 0.35564304462 0.24852071006 0.093690248566 0
          0 0.10775862069 0.30833333333 0.39349112426 0.4436416185 0.48598130841
          0.39349112426 0.30833333333 0.10775862069 0 0 0.16292134831
          0.35560344828 0.43021032505 0.44465290807 0.49053356282 0.43021032505 0.35560344828
          0.16292134831 0 0 0.16216216216 0.35324675325 0.42857142857
          0.44469525959 0.48962655602 0.42857142857 0.35324675325 0.16216216216 0
          0 0 0 0 0 0
          0 0 0 0 0 0.025
          0 0 0 0 0 0
          0.025 0 0 0.05023923445 0.068391866913 0.039344262295
          0.012820512821 0.011834319527 0.039344262295 0.068391866913 0.05023923445 0
          0 0.063694267516 0.10819672131 0.10465116279 0.036984352774 0.034120734908
          0.10465116279 0.10819672131 0.063694267516 0 0 0.070981210856
          0.15544871795 0.16500711238 0.12290502793 0.11282051282 0.16500711238 0.15544871795
          0.070981210856 0 0 0.082217973231 0.19378698225 0.25459317585
          0.33974358974 0.38981042654 0.25459317585 0.19378698225 0.082217973231 0
          0 0.093418259023 0.24918032787 0.35610465116 0.41963015647 0.46456692913
          0.35610465116 0.24918032787 0.093418259023 0 0 0.10765550239
          0.30868761553 0.39508196721 0.44391025641 0.48668639053 0.39508196721 0.30868761553
          0.10765550239 0 0 0.1625 0.35645933014 0.43099787686
          0.44467640919 0.4913957935 0.43099787686 0.35645933014 0.1625 0
          0 0.16165413534 0.35446685879 0.42966751918 0.44472361809 0.49078341014
          0.42966751918 0.35446685879 0.16165413534 0 0 0
          0 0 0 0 0 0
          0 0 0 0.024647887324 0 0
          0 0 0 0 0.024647887324 0
          0 0.051212938005 0.06875 0.038817005545 0.012635379061 0.011666666667
          0.038817005545 0.06875 0.051212938005 0 0 0.064593301435
          0.10905730129 0.10491803279 0.036858974359 0.034023668639 0.10491803279 0.10905730129
          0.064593301435 0 0 0.070588235294 0.15523465704 0.16506410256
          0.12283464567 0.11271676301 0.16506410256 0.15523465704 0.070588235294 0
          0 0.081896551724 0.19333333333 0.25443786982 0.33959537572 0.38985313752
          0.25443786982 0.19333333333 0.081896551724 0 0 0.093301435407
          0.24768946396 0.35573770492 0.41987179487 0.46449704142 0.35573770492 0.24768946396
          0.093301435407 0 0 0.10781671159 0.30833333333 0.39556377079
          0.4440433213 0.48666666667 0.39556377079 0.30833333333 0.10781671159 0
          0 0.16197183099 0.35579514825 0.43062200957 0.44470588235 0.49137931034
          0.43062200957 0.35579514825 0.16197183099 0 0 0.16101694915
          0.3538961039 0.42939481268 0.4447592068 0.49090909091 0.42939481268 0.3538961039
          0.16101694915 0 0 0 0 0
          0 0 0 0 0 0
          0 0.027906976744 0 0 0 0
          0 0 0.027906976744 0 0 0.056338028169
          0.072776280323 0.040669856459 0.014117647059 0.012931034483 0.040669856459 0.072776280323
          0.056338028169 0 0 0.06875 0.11483253589 0.10828025478
          0.0375782881 0.034416826004 0.10828025478 0.11483253589 0.06875 0
          0 0.074303405573 0.16235294118 0.16910229645 0.12371134021 0.11257035647
          0.16910229645 0.16235294118 0.074303405573 0 0 0.084269662921
          0.20043103448 0.25812619503 0.33771106942 0.39242685026 0.25812619503 0.20043103448
          0.084269662921 0 0 0.09375 0.25358851675 0.36093418259
          0.41962421712 0.46845124283 0.36093418259 0.25358851675 0.09375 0
          0 0.10563380282 0.3153638814 0.4019138756 0.44470588235 0.49137931034
          0.4019138756 0.3153638814 0.10563380282 0 0 0.16744186047
          0.36971830986 0.440625 0.44582043344 0.49719101124 0.440625 0.36971830986
          0.16744186047 0 0.006711409396 0.16759776536 0.3686440678 0.43984962406
          0.44609665428 0.49662162162 0.43984962406 0.3686440678 0.17318435754 0.006711409396
          0 0 0 0 0 0
          0 0 0 0 0 0.027932960894
          0 0 0 0 0 0
          0.027932960894 0 0 0.055084745763 0.071428571429 0.040345821326
          0.014164305949 0.012987012987 0.040345821326 0.071428571429 0.055084745763 0
          0 0.067669172932 0.11239193084 0.1074168798 0.037688442211 0.034562211982
          0.1074168798 0.11239193084 0.067669172932 0 0 0.074349442379
          0.16147308782 0.16834170854 0.12376237624 0.11286681716 0.16834170854 0.16147308782
          0.074349442379 0 0 0.084459459459 0.2 0.25806451613
          0.33860045147 0.39211618257 0.25806451613 0.2 0.084459459459 0
          0 0.093984962406 0.25360230548 0.36061381074 0.41959798995 0.46774193548
          0.36061381074 0.25360230548 0.093984962406 0 0 0.10593220339
          0.31493506494 0.40057636888 0.4447592068 0.49090909091 0.40057636888 0.31493506494
          0.10593220339 0 0 0.16759776536 0.3686440678 0.43984962406
          0.44981412639 0.5 0.43984962406 0.3686440678 0.16759776536 0.006711409396
          0.016129032258 0.1744966443 0.36734693878 0.44343891403 0.45535714286 0.50406504065
          0.44343891403 0.36734693878 0.18120805369 0.024193548387
        </DataArray>
        <DataArray type="Float64" Name="Displacement" NumberOfComponents="3" format="ascii" RangeMin="0.21430350751" RangeMax="2.4071178591">
          0.090673291104 1.8093319927 -0.4759967391 0.02446560648 1.8689543999 -0.38872035145
          -0.049828474351 1.9219636577 -0.30199123841 -0.12349088313 1.9824264351 -0.2125209031
          -0.20537136422 2.039758577 -0.12285036874 -0.26489593808 2.0970597316 -0.040959481321
          -0.3401271844 2.153582349 0.046430487921 -0.40136782578 2.2125256435 0.1327528814
          -0.47423603372 2.267495534 0.21285187445 -0.54156614588 2.3270854233 0.29256782142
          0.034148198046 1.6409404478 -0.40119792849 -0.033395718599 1.6947618718 -0.31564628714
          -0.10763701224 1.7474045632 -0.22854309422 -0.17824495686 1.8031922474 -0.14397405204
          -0.24827646225 1.8617801922 -0.057160646357 -0.32154998315 1.9186856455 0.030576323879
          -0.38903249602 1.9761050529 0.11577809632 -0.46231065922 2.0334703273 0.20309810525
          -0.5331585753 2.0912870115 0.28332550034 -0.60440757046 2.150611535 0.36695388285
          -0.018325997412 1.45291924 -0.33511675213 -0.089601975398 1.5133754546 -0.24637326828
          -0.16202564985 1.56709596 -0.15946645213 -0.23219167607 1.626203803 -0.073609943753
          -0.30236226845 1.6822192221 0.012300957355 -0.37582455266 1.7404344098 0.099884905739
          -0.44438629243 1.7980929789 0.18415006964 -0.51609506264 1.8545587719 0.27141002365
          -0.58683518515 1.9132825002 0.35692031594 -0.65455592979 1.9701210266 0.44636195931
          -0.073627805462 1.2786979522 -0.26147884089 -0.14427117771 1.3341780663 -0.17665296686
          -0.21525484599 1.3915037321 -0.088698718368 -0.28559291832 1.4475500257 -0.0032206717029
          -0.35629381348 1.5049042556 0.08210233683 -0.42885215445 1.5613522181 0.16884215343
          -0.49870395499 1.6187670363 0.25500244112 -0.57112252449 1.6762550707 0.33998649034
          -0.64224662362 1.7334613602 0.42647506186 -0.7142216243 1.7926455428 0.51047876937
          -0.12847290062 1.0984759305 -0.19458151239 -0.19806018074 1.155341055 -0.10812603034
          -0.27042453379 1.2134104619 -0.01897980542 -0.34079072763 1.2696512678 0.065608448747
          -0.41117354777 1.3261850429 0.15147097935 -0.4824885543 1.3836110594 0.23830720978
          -0.5537809037 1.4427702978 0.32447640932 -0.62629376708 1.4987512506 0.41017710158
          -0.69473206025 1.5574147478 0.49703726189 -0.76580833415 1.6143554704 0.58321466532
          -0.18171486194 0.91757866429 -0.1267132352 -0.25345873104 0.97624679634 -0.037463965581
          -0.3246451591 1.034014967 0.049898043833 -0.3949254916 1.0914953775 0.13598153066
          -0.46699742659 1.1478756201 0.22189954147 -0.5375177921 1.2073076652 0.30980398229
          -0.60776794078 1.2637961142 0.39433251997 -0.67951912192 1.3211222779 0.48087938799
          -0.75093752829 1.3788236534 0.56692014568 -0.82113223302 1.4360876972 0.65349734933
          -0.23761850142 0.74047923807 -0.053878032927 -0.30805030646 0.79905638116 0.031321349231
          -0.3790556235 0.85635751021 0.11835974858 -0.4498477364 0.91195391468 0.20602650956
          -0.52133375327 0.9684940199 0.29292234388 -0.59189593931 1.0279077471 0.37887944018
          -0.66228397896 1.0862408809 0.46504265367 -0.73380810074 1.1439580898 0.55087988219
          -0.80528251371 1.2005504142 0.63599548358 -0.87655549355 1.2580112213 0.72243504717
          -0.28969184335 0.56232605479 0.0085008877803 -0.36380327742 0.61900671217 0.099621123339
          -0.43518443746 0.67530449908 0.18860999062 -0.50786666167 0.73282668342 0.27174911515
          -0.5751964475 0.78965499967 0.36120885636 -0.64626306381 0.85064985621 0.45073775597
          -0.71748114042 0.91223040496 0.53957460669 -0.78766038878 0.96386600224 0.62386620309
          -0.85820316767 1.0231203868 0.70924433003 -0.92631522359 1.0821907432 0.79362862059
          -0.34780997491 0.38136863507 0.088579469474 -0.4180011642 0.43802919948 0.16485937787
          -0.4895302778 0.49528270484 0.25520862247 -0.56023001056 0.55395979972 0.34367191897
          -0.63332099928 0.61099834815 0.42959478363 -0.70149226475 0.6743190316 0.5136777275
          -0.77157259892 0.72907518923 0.60540074309 -0.84105341904 0.78758789705 0.69190548098
          -0.9102561294 0.84673736418 0.78175213927 -0.98840874213 0.8937889678 0.86652958442
          -0.39993708292 0.20112781824 0.14877641406 -0.47078154375 0.25559815572 0.2474222307
          -0.54442033853 0.3198297603 0.32867996863 -0.61423676658 0.37270567217 0.41330227678
          -0.67925704004 0.40887704895 0.50944186275 -0.75483039199 0.48740403756 0.59418323049
          -0.82494462557 0.54838727572 0.67479052364 -0.89986957339 0.60540892007 0.75808116098
          -0.96882460073 0.65306706431 0.85121806883 -1.0373994177 0.71459121306 0.94164017379
          0.17704538285 1.7413234843 -0.57872632095 0.10864188822 1.7984383331 -0.49502775537
          0.035926056426 1.8582857351 -0.40652330816 -0.033627619439 1.9133399545 -0.32190647551
          -0.10557431499 1.97147083 -0.23464195893 -0.17300571052 2.0286255913 -0.14867973242
          -0.24604711751 2.0870622555 -0.061647124547 -0.32000733077 2.1446260887 0.025669002567
          -0.38691160274 2.2006648257 0.11036406907 -0.45700519903 2.2590447027 0.20066258879
          0.12345758902 1.5628197987 -0.51069850081 0.05319085257 1.62227702 -0.42334875782
          -0.018436167021 1.6801695084 -0.3367145266 -0.089489709837 1.7364601161 -0.25048757969
          -0.16033088277 1.7939124489 -0.16521411707 -0.23097127336 1.8512665207 -0.078503620146
          -0.30219000686 1.9073602718 0.0075475269772 -0.37410756494 1.9655143119 0.093052726495
          -0.4432364691 2.0229365634 0.17970832628 -0.51441245892 2.0811564845 0.26660858574
          0.067895500535 1.38958883 -0.43795737195 -0.0010355287521 1.4441173936 -0.35424981605
          -0.072424115782 1.501579624 -0.266752022 -0.1434689327 1.5580479972 -0.18148560911
          -0.21477055944 1.615035838 -0.094989250759 -0.28600012851 1.6731307612 -0.0076893358806
          -0.3563686456 1.7309278411 0.077446799124 -0.42837059276 1.7871491197 0.16403595052
          -0.49781974539 1.8450323528 0.25009492596 -0.57392997345 1.9030039141 0.33444018585
          0.015634098718 1.2108680543 -0.37069549622 -0.056218340001 1.2660461184 -0.28430075545
          -0.12772965941 1.3239293749 -0.19708141346 -0.19798370701 1.3797584348 -0.11124184575
          -0.26901918463 1.4373576425 -0.024614557311 -0.34060402811 1.4947685858 0.061669503891
          -0.41036052564 1.5526999374 0.14837214937 -0.48224881357 1.6100606561 0.23305594649
          -0.5524791718 1.6670524496 0.320425374 -0.62436295263 1.7252968988 0.40448615315
          -0.040848416759 1.0297375175 -0.30075509916 -0.11166310072 1.0870922148 -0.21395235988
          -0.18188510767 1.1442955634 -0.12785616747 -0.25298797813 1.2015222605 -0.041203299366
          -0.32423161708 1.2587841552 0.04591326203 -0.39527114867 1.3164652627 0.1316317442
          -0.4659448312 1.3744460783 0.21816492097 -0.53591278072 1.4315347527 0.30326263965
          -0.60768355591 1.4889786979 0.39056541554 -0.67886088054 1.5458817888 0.47812115118
          -0.095529300943 0.85383589943 -0.23122073586 -0.16573424718 0.90978615077 -0.14481806125
          -0.23621031892 0.96602809114 -0.058121883098 -0.30801206423 1.0235571316 0.028437640646
          -0.37852682434 1.0802127485 0.11515089801 -0.44905174293 1.1392115683 0.20178146749
          -0.5204837323 1.1971033798 0.28838137506 -0.59091773788 1.2532701181 0.37422617854
          -0.66230953047 1.3111216078 0.46064244102 -0.73585556872 1.3696919333 0.54509829163
          -0.14880319612 0.6739124544 -0.161997663 -0.22032556185 0.73155302621 -0.075805177364
          -0.29111581446 0.78921757257 0.011909762115 -0.36191510708 0.84538102754 0.098328783925
          -0.43190239495 0.90165066658 0.18484978527 -0.50301545445 0.96094989736 0.27175678634
          -0.57517700839 1.0179123284 0.35731394982 -0.64585190543 1.0754072126 0.44377817419
          -0.71704357099 1.1333367517 0.53111758555 -0.78790038224 1.1900400974 0.61678291271
          -0.20495192396 0.49678091481 -0.093427535251 -0.27521776409 0.55273699312 -0.0070080726697
          -0.34630757314 0.60920393251 0.079817444789 -0.41707121888 0.66636038229 0.16687654695
          -0.48935992783 0.72132432394 0.25266841199 -0.55828632811 0.78281150049 0.34218314428
          -0.62963002471 0.84106396491 0.42713443343 -0.70024333719 0.89842522817 0.51480808382
          -0.77113147905 0.95622732326 0.60072239124 -0.84327607583 1.013767007 0.68600648027
          -0.25876295591 0.31405016198 -0.023433684069 -0.32969165121 0.37366713882 0.062603208452
          -0.4013442188 0.42971183342 0.14889583443 -0.47264992472 0.48756615725 0.23646191092
          -0.54418056173 0.54450491146 0.32166160854 -0.61276963053 0.6064254417 0.41271042307
          -0.68427173743 0.66231747333 0.49739672071 -0.75428694532 0.71979030979 0.58507796591
          -0.82509073129 0.77652262933 0.67102844786 -0.89507609148 0.83399769757 0.75826295125
          -0.31286832922 0.14249702885 0.045513435363 -0.38243533315 0.19428113359 0.13390062786
          -0.45333040543 0.25204313696 0.21865061389 -0.52480624918 0.30645085955 0.30490165885
          -0.59769092667 0.36753485086 0.39354356483 -0.66677247846 0.42828010635 0.4780623578
          -0.73602131018 0.48244825528 0.57089418709 -0.80808734661 0.54206344655 0.65401385374
          -0.8769826384 0.60043403638 0.74088042525 -0.95072969673 0.65867814928 0.8260173442
          0.2642614917 1.6759757294 -0.68564204916 0.19615828294 1.7312719981 -0.6009437597
          0.12268533465 1.7899845043 -0.51534868805 0.05359557993 1.8480375536 -0.42900770268
          -0.018074960502 1.9044965118 -0.34222306331 -0.089570445531 1.9629847489 -0.25598498521
          -0.15882040159 2.0199136791 -0.16956228668 -0.23029748128 2.0765797815 -0.081990842263
          -0.30119508169 2.1333387029 0.0078099877396 -0.37701767355 2.1928871028 0.088731878881
          0.21126999417 1.4971581354 -0.61681673612 0.14077543316 1.5536717076 -0.5312903637
          0.069312376193 1.6121111009 -0.44443940499 -0.0012544416489 1.6690752093 -0.35829833841
          -0.071986349266 1.7264527388 -0.27234458548 -0.14303545615 1.7840207945 -0.18540551218
          -0.21356025243 1.841212416 -0.099389837273 -0.28529051045 1.8990872927 -0.012777699389
          -0.35548119611 1.9561481868 0.07404926063 -0.42731039138 2.0128162711 0.15820434916
          0.15668541987 1.3198051761 -0.54833638062 0.085834085694 1.3760775746 -0.46141631
          0.014752873879 1.4338584464 -0.37419650266 -0.056384682205 1.490502624 -0.28754559491
          -0.12677819011 1.5477516321 -0.2016512105 -0.19775521471 1.6052054338 -0.11513439554
          -0.2691838727 1.6624123904 -0.02958782083 -0.34002254021 1.7203072436 0.056756249512
          -0.41039248025 1.7768242531 0.1435050691 -0.47996289595 1.8362941756 0.23058018018
          0.10261218083 1.1407444589 -0.47668494727 0.031395504217 1.1981954376 -0.39105414729
          -0.038886529571 1.2555438914 -0.30504313972 -0.11077955297 1.3124397871 -0.21775995058
          -0.1814896124 1.3696766411 -0.13171686143 -0.25250196944 1.4270374499 -0.045789015249
          -0.32394955818 1.4847050241 0.04055513029 -0.39400116016 1.5421255089 0.12644395604
          -0.46499912301 1.5994689591 0.21362099436 -0.53680748403 1.6562314096 0.2991117651
          0.048173764366 0.96277155707 -0.40847239176 -0.02256743834 1.0197232771 -0.32157753433
          -0.094282347991 1.0776417363 -0.234718545 -0.16506690628 1.1344560038 -0.14744849869
          -0.23614875831 1.1918085684 -0.062769316134 -0.30700594192 1.2493221318 0.024109286048
          -0.37849877378 1.3059923544 0.11024739483 -0.44912388667 1.363783148 0.19664825642
          -0.51906968538 1.420936824 0.28309129748 -0.590290028 1.4785161736 0.36961179126
          -0.0064559303513 0.78500485664 -0.33965141583 -0.077358970835 0.84162847197 -0.25194410547
          -0.14814890186 0.89927730759 -0.16526618368 -0.21969168484 0.95630185358 -0.078543742283
          -0.29078953911 1.012425098 0.0074263754446 -0.36106477873 1.0717915693 0.094948808832
          -0.43231405068 1.1286737421 0.18057643571 -0.50334940742 1.185346799 0.26630741926
          -0.57420600796 1.2431376548 0.35303378738 -0.64434342808 1.3018183004 0.43894375391
          -0.061424792118 0.60634334231 -0.27017375296 -0.1322242611 0.66314503666 -0.18382005397
          -0.20296521482 0.7199993752 -0.096387544786 -0.27428329276 0.77755891703 -0.0091866596556
          -0.34531828648 0.83439623555 0.078132734076 -0.41597828717 0.89260288411 0.16374190073
          -0.48670514767 0.95062366731 0.25062685002 -0.55751345799 1.0078506166 0.33693539457
          -0.6281679426 1.0658545019 0.4235080069 -0.699415942 1.1226761908 0.50931878954
          -0.11567562601 0.42679633742 -0.20100528953 -0.18669713504 0.48541143664 -0.11396312051
          -0.25673059622 0.54186840036 -0.027542519576 -0.32906224067 0.59767442244 0.059170669404
          -0.40034600126 0.65485291003 0.14672934915 -0.46988434255 0.71521052605 0.23434973765
          -0.54018349409 0.77261021294 0.32074474814 -0.61039259442 0.83021175038 0.40583503899
          -0.6830501939 0.8875309259 0.49382608258 -0.7527808511 0.9439004117 0.58048532111
          -0.17039323078 0.24958918595 -0.13177970701 -0.24171790285 0.30622177308 -0.04693194142
          -0.31275792329 0.36293933628 0.041824381112 -0.38419685803 0.42018758007 0.12780929665
          -0.45501487495 0.47707821168 0.21518019212 -0.5244943264 0.53766194055 0.3032346324
          -0.59541715563 0.59580839274 0.39093323557 -0.6663024998 0.65165514586 0.47665159948
          -0.73621671523 0.71018280391 0.56346141485 -0.80742730181 0.76752441149 0.64875939131
          -0.22666905053 0.072810109113 -0.062027011342 -0.29661024043 0.12844323252 0.026853450604
          -0.36755733959 0.18517693742 0.11024790906 -0.4384018944 0.24363449496 0.1987035176
          -0.51198083442 0.29975666114 0.2844206625 -0.58132178058 0.36222521329 0.37359089386
          -0.65166415148 0.41642258205 0.45724339473 -0.72103542598 0.47523693259 0.54569277002
          -0.79346574588 0.52920055899 0.63185143109 -0.8666940593 0.58605573357 0.7184027104
          0.35300337125 1.6046119027 -0.79380686492 0.28391586339 1.6671450263 -0.70824827807
          0.21187467207 1.7217783291 -0.62164002423 0.1426645563 1.7794695797 -0.5356025745
          0.070881246608 1.836051968 -0.44853698029 -0.00057003231681 1.8945669519 -0.36220341208
          -0.071006184941 1.951822321 -0.27730131332 -0.14290871251 2.0088712081 -0.18924470681
          -0.21226818033 2.0668442259 -0.10480033086 -0.2825559377 2.1216103112 -0.016919070569
          0.29788407729 1.4263379262 -0.72488042105 0.22882709111 1.4865861944 -0.63873429341
          0.15712082343 1.5440887788 -0.55202291415 0.086614787896 1.6015759215 -0.46571559995
          0.015527334934 1.6590062409 -0.37922331648 -0.05544288536 1.71649955 -0.29280268814
          -0.12512129266 1.7737755623 -0.20558171837 -0.19720904946 1.83131488 -0.12008111566
          -0.26755975355 1.8877701612 -0.033684815737 -0.33761876222 1.9457858122 0.054501561021
          0.24627930439 1.2528980725 -0.6546449746 0.17511680277 1.3091656088 -0.56771996916
          0.10368624224 1.3657864818 -0.48176997756 0.032422327805 1.4231741858 -0.39576675031
          -0.03873960513 1.4804351392 -0.30919284245 -0.10960213025 1.5378718971 -0.22290737573
          -0.18027079576 1.5951757287 -0.13697011301 -0.2515249355 1.6521687136 -0.050205671416
          -0.32260738935 1.7095446497 0.035949910198 -0.39292269133 1.7673217857 0.12031762627
          0.1905867885 1.0737789872 -0.58535449457 0.1188704672 1.1307332383 -0.49783879522
          0.048951822106 1.1881442082 -0.41173027364 -0.022356340679 1.2448338036 -0.32553042074
          -0.093319753217 1.3021475041 -0.2392193012 -0.16430819046 1.3594908862 -0.15290295853
          -0.2350384296 1.4171397892 -0.066784179387 -0.30645456378 1.4741228022 0.01911130198
          -0.3778339904 1.5316276054 0.10646725665 -0.44817503097 1.5896539337 0.19264287036
          0.13587527359 0.8955812114 -0.51672588992 0.065719522797 0.95304807141 -0.4297655276
          -0.0055336318793 1.0094414641 -0.34294447133 -0.076990264823 1.0667103015 -0.25459348279
          -0.14804587811 1.1238263726 -0.16902579513 -0.2189440701 1.1814441149 -0.082957468366
          -0.28999610622 1.2385603904 0.0032190824654 -0.36041404689 1.2964972109 0.089448545305
          -0.43138447795 1.35424559 0.17542203787 -0.50238409281 1.4119505375 0.26305076571
          0.081479820765 0.71752475726 -0.44651797202 0.010151725258 0.7747161766 -0.360428089
          -0.060443875343 0.83135261729 -0.27312506136 -0.13168943866 0.8882555787 -0.18655176235
          -0.20276489459 0.94565133901 -0.099671100244 -0.27322961137 1.003842207 -0.013073631744
          -0.34395788824 1.0607603794 0.073356278576 -0.41473820561 1.1186529308 0.15963301948
          -0.48606077639 1.1764826796 0.24592170006 -0.5562013812 1.2331055217 0.33257456156
          0.026605308419 0.53854592236 -0.37694805481 -0.043687433404 0.5956785513 -0.29014545026
          -0.11492127313 0.65254849865 -0.2047802169 -0.18671807997 0.70941073292 -0.11700740813
          -0.25752867187 0.76615245694 -0.031310831438 -0.32786752567 0.82556094076 0.056567607369
          -0.39875930932 0.88254318102 0.14316908442 -0.46897786021 0.94063254365 0.22966478726
          -0.54060388085 0.99731747905 0.31566770045 -0.6111793186 1.0549633959 0.40270101513