<?xml version="1.0"?>
<VTKFile type="UnstructuredGrid" version="0.1" byte_order="LittleEndian" compressor="vtkZLibDataCompressor">
  <UnstructuredGrid>
    <FieldData>
      <DataArray type="Float64" Name="TIME" NumberOfTuples="1" format="ascii" RangeMin="0.34482377753" RangeMax="0.34482377753">
        0.34482377753
      </DataArray>
    </FieldData>
    <Piece NumberOfPoints="1000" NumberOfCells="0">
      <PointData>
        <DataArray type="Float64" Name="Damage" format="ascii" RangeMin="0" RangeMax="0.49719101124">
          0 0 0 0 0 0
          0 0 0 0 0 0.027932960894
          0 0 0 0 0 0
          0.027932960894 0 0 0.055084745763 0.071428571429 0.040345821326
          0.014164305949 0.012987012987 0.040345821326 0.071428571429 0.055084745763 0
          0 0.067669172932 0.11239193084 0.1074168798 0.037688442211 0.034562211982
          0.1074168798 0.11239193084 0.067669172932 0 0 0.074349442379
          0.16147308782 0.16834170854 0.12376237624 0.11286681716 0.16834170854 0.16147308782
          0.074349442379 0 0 0.084459459459 0.2 0.25806451613
          0.33860045147 0.39211618257 0.25806451613 0.2 0.084459459459 0
          0 0.093984962406 0.25360230548 0.36061381074 0.41959798995 0.46774193548
          0.36061381074 0.25360230548 0.093984962406 0 0 0.10593220339
          0.31493506494 0.40057636888 0.4447592068 0.49090909091 0.40057636888 0.31493506494
          0.10593220339 0 0 0.16759776536 0.3686440678 0.43984962406
          0.44609665428 0.49662162162 0.43984962406 0.3686440678 0.16759776536 0
          0 0.1677852349 0.36734693878 0.43891402715 0.44642857143 0.49593495935
          0.43891402715 0.36734693878 0.1677852349 0 0 0
          0 0 0 0 0 0
          0 0 0 0.027906976744 0 0
          0 0 0 0 0.027906976744 0
          0 0.056338028169 0.072776280323 0.040669856459 0.014117647059 0.012931034483
          0.040669856459 0.072776280323 0.056338028169 0 0 0.06875
          0.11483253589 0.10828025478 0.0375782881 0.034416826004 0.10828025478 0.11483253589
          0.06875 0 0 0.074303405573 0.16235294118 0.16910229645
          0.12371134021 0.11257035647 0.16910229645 0.16235294118 0.074303405573 0
          0 0.084269662921 0.20043103448 0.25812619503 0.33771106942 0.39242685026
          0.25812619503 0.20043103448 0.084269662921 0 0 0.09375
          0.25358851675 0.36093418259 0.41962421712 0.46845124283 0.36093418259 0.25358851675
          0.09375 0 0 0.10563380282 0.3153638814 0.4019138756
          0.44470588235 0.49137931034 0.4019138756 0.3153638814 0.10563380282 0
          0 0.16744186047 0.36971830986 0.440625 0.44582043344 0.49719101124
          0.440625 0.36971830986 0.16744186047 0 0 0.16759776536
          0.3686440678 0.43984962406 0.44609665428 0.49662162162 0.43984962406 0.3686440678
          0.16759776536 0 0 0 0 0
          0 0 0 0 0 0
          0 0.024647887324 0 0 0 0
          0 0 0.024647887324 0 0 0.051212938005
          0.06875 0.038817005545 0.012635379061 0.011666666667 0.038817005545 0.06875
          0.051212938005 0 0 0.064593301435 0.10905730129 0.10491803279
          0.036858974359 0.034023668639 0.10491803279 0.10905730129 0.064593301435 0
          0 0.070588235294 0.15523465704 0.16506410256 0.12283464567 0.11271676301
          0.16506410256 0.15523465704 0.070588235294 0 0 0.081896551724
          0.19333333333 0.25443786982 0.33959537572 0.38985313752 0.25443786982 0.19333333333
          0.081896551724 0 0 0.093301435407 0.24768946396 0.35573770492
          0.41987179487 0.46449704142 0.35573770492 0.24768946396 0.093301435407 0
          0 0.10781671159 0.30833333333 0.39556377079 0.4440433213 0.48666666667
          0.39556377079 0.30833333333 0.10781671159 0 0 0.16197183099
          0.35579514825 0.43062200957 0.44470588235 0.49137931034 0.43062200957 0.35579514825
          0.16197183099 0 0 0.16101694915 0.3538961039 0.42939481268
          0.4447592068 0.49090909091 0.42939481268 0.3538961039 0.16101694915 0
          0 0 0 0 0 0
          0 0 0 0 0 0.025
          0 0 0 0 0 0
          0.025 0 0 0.05023923445 0.068391866913 0.039344262295
          0.012820512821 0.011834319527 0.039344262295 0.068391866913 0.05023923445 0
          0 0.063694267516 0.10819672131 0.10465116279 0.036984352774 0.034120734908
          0.10465116279 0.10819672131 0.063694267516 0 0 0.070981210856
          0.15544871795 0.16500711238 0.12290502793 0.11282051282 0.16500711238 0.15544871795
          0.070981210856 0 0 0.082217973231 0.19378698225 0.25459317585
          0.33974358974 0.38981042654 0.25459317585 0.19378698225 0.082217973231 0
          0 0.093418259023 0.24918032787 0.35610465116 0.41963015647 0.46456692913
          0.35610465116 0.24918032787 0.093418259023 0 0 0.10765550239
          0.30868761553 0.39508196721 0.44391025641 0.48668639053 0.39508196721 0.30868761553
          0.10765550239 0 0 0.1625 0.35645933014 0.43099787686
          0.44467640919 0.4913957935 0.43099787686 0.35645933014 0.1625 0
          0 0.16165413534 0.35446685879 0.42966751918 0.44472361809 0.49078341014
          0.42966751918 0.35446685879 0.16165413534 0 0 0
          0 0 0 0 0 0
          0 0 0 0.02786377709 0 0
          0 0 0 0 0.02786377709 0
          0 0.054117647059 0.070397111913 0.040064102564 0.014173228346 0.013005780347
          0.040064102564 0.070397111913 0.054117647059 0 0 0.066805845511
          0.11057692308 0.106685633 0.037709497207 0.034615384615 0.106685633 0.11057692308
          0.066805845511 0 0 0.074226804124 0.16062992126 0.16759776536
          0.12362637363 0.11292346299 0.16759776536 0.16062992126 0.074226804124 0
          0 0.084427767355 0.19942196532 0.25769230769 0.33877038896 0.39145496536
          0.25769230769 0.19942196532 0.084427767355 0 0 0.093945720251
          0.25320512821 0.35988620199 0.41899441341 0.46666666667 0.35988620199 0.25320512821
          0.093945720251 0 0 0.10588235294 0.31407942238 0.39903846154
          0.44409448819 0.48988439306 0.39903846154 0.31407942238 0.10588235294 0
          0 0.16718266254 0.36705882353 0.43841336117 0.44536082474 0.49530956848
          0.43841336117 0.36705882353 0.16718266254 0 0 0.16728624535
          0.36543909348 0.43718592965 0.44554455446 0.49435665914 0.43718592965 0.36543909348
          0.16728624535 0 0 0 0 0
          0 0 0 0 0 0
          0 0.025280898876 0 0 0 0
          0 0 0.025280898876 0 0 0.049568965517
          0.066666666667 0.038461538462 0.013005780347 0.012016021362 0.038461538462 0.066666666667
          0.049568965517 0 0 0.06309751434 0.1050295858 0.10367454068
          0.037179487179 0.034360189573 0.10367454068 0.1050295858 0.06309751434 0
          0 0.071294559099 0.15462427746 0.1641025641 0.12296110414 0.11316397229
          0.1641025641 0.15462427746 0.071294559099 0 0 0.082616179002
          0.19359145527 0.25473933649 0.34064665127 0.38930481283 0.25473933649 0.19359145527
          0.082616179002 0 0 0.093690248566 0.24852071006 0.35564304462
          0.41923076923 0.46327014218 0.35564304462 0.24852071006 0.093690248566 0
          0 0.10775862069 0.30833333333 0.39349112426 0.4436416185 0.48598130841
          0.39349112426 0.30833333333 0.10775862069 0 0 0.16292134831
          0.35560344828 0.43021032505 0.44465290807 0.49053356282 0.43021032505 0.35560344828
          0.16292134831 0 0 0.16216216216 0.35324675325 0.42857142857
          0.44469525959 0.48962655602 0.42857142857 0.35324675325 0.16216216216 0
          0 0 0 0 0 0
          0 0 0 0 0 0.025
          0 0 0 0 0 0
          0.025 0 0 0.05023923445 0.068391866913 0.039344262295
          0.012820512821 0.011834319527 0.039344262295 0.068391866913 0.05023923445 0
          0 0.063694267516 0.10819672131 0.10465116279 0.036984352774 0.034120734908
          0.10465116279 0.10819672131 0.063694267516 0 0 0.070981210856
          0.15544871795 0.16500711238 0.12290502793 0.11282051282 0.16500711238 0.15544871795
          0.070981210856 0 0 0.082217973231 0.19378698225 0.25459317585
          0.33974358974 0.38981042654 0.25459317585 0.19378698225 0.082217973231 0
          0 0.093418259023 0.24918032787 0.35610465116 0.41963015647 0.46456692913
          0.35610465116 0.24918032787 0.093418259023 0 0 0.10765550239
          0.30868761553 0.39508196721 0.44391025641 0.48668639053 0.39508196721 0.30868761553
          0.10765550239 0 0 0.1625 0.35645933014 0.43099787686
          0.44467640919 0.4913957935 0.43099787686 0.35645933014 0.1625 0
          0 0.16165413534 0.35446685879 0.42966751918 0.44472361809 0.49078341014
          0.42966751918 0.35446685879 0.16165413534 0 0 0
          0 0 0 0 0 0
          0 0 0 0.024647887324 0 0
          0 0 0 0 0.024647887324 0
          0 0.051212938005 0.06875 0.038817005545 0.012635379061 0.011666666667
          0.038817005545 0.06875 0.051212938005 0 0 0.064593301435
          0.10905730129 0.10491803279 0.036858974359 0.034023668639 0.10491803279 0.10905730129
          0.064593301435 0 0 0.070588235294 0.15523465704 0.16506410256
          0.12283464567 0.11271676301 0.16506410256 0.15523465704 0.070588235294 0
          0 0.081896551724 0.19333333333 0.25443786982 0.33959537572 0.38985313752
          0.25443786982 0.19333333333 0.081896551724 0 0 0.093301435407
          0.24768946396 0.35573770492 0.41987179487 0.46449704142 0.35573770492 0.24768946396
          0.093301435407 0 0 0.10781671159 0.30833333333 0.39556377079
          0.4440433213 0.48666666667 0.39556377079 0.30833333333 0.10781671159 0
          0 0.16197183099 0.35579514825 0.43062200957 0.44470588235 0.49137931034
          0.43062200957 0.35579514825 0.16197183099 0 0 0.16101694915
          0.3538961039 0.42939481268 0.4447592068 0.49090909091 0.42939481268 0.3538961039
          0.16101694915 0 0 0 0 0
          0 0 0 0 0 0
          0 0.027906976744 0 0 0 0
          0 0 0.027906976744 0 0 0.056338028169
          0.072776280323 0.040669856459 0.014117647059 0.012931034483 0.040669856459 0.072776280323
          0.056338028169 0 0 0.06875 0.11483253589 0.10828025478
          0.0375782881 0.034416826004 0.10828025478 0.11483253589 0.06875 0
          0 0.074303405573 0.16235294118 0.16910229645 0.12371134021 0.11257035647
          0.16910229645 0.16235294118 0.074303405573 0 0 0.084269662921
          0.20043103448 0.25812619503 0.33771106942 0.39242685026 0.25812619503 0.20043103448
          0.084269662921 0 0 0.09375 0.25358851675 0.36093418259
          0.41962421712 0.46845124283 0.36093418259 0.25358851675 0.09375 0
          0 0.10563380282 0.3153638814 0.4019138756 0.44470588235 0.49137931034
          0.4019138756 0.3153638814 0.10563380282 0 0 0.16744186047
          0.36971830986 0.440625 0.44582043344 0.49719101124 0.440625 0.36971830986
          0.16744186047 0 0 0.16759776536 0.3686440678 0.43984962406
          0.44609665428 0.49662162162 0.43984962406 0.3686440678 0.16759776536 0
          0 0 0 0 0 0
          0 0 0 0 0 0.027932960894
          0 0 0 0 0 0
          0.027932960894 0 0 0.055084745763 0.071428571429 0.040345821326
          0.014164305949 0.012987012987 0.040345821326 0.071428571429 0.055084745763 0
          0 0.067669172932 0.11239193084 0.1074168798 0.037688442211 0.034562211982
          0.1074168798 0.11239193084 0.067669172932 0 0 0.074349442379
          0.16147308782 0.16834170854 0.12376237624 0.11286681716 0.16834170854 0.16147308782
          0.074349442379 0 0 0.084459459459 0.2 0.25806451613
          0.33860045147 0.39211618257 0.25806451613 0.2 0.084459459459 0
          0 0.093984962406 0.25360230548 0.36061381074 0.41959798995 0.46774193548
          0.36061381074 0.25360230548 0.093984962406 0 0 0.10593220339
          0.31493506494 0.40057636888 0.4447592068 0.49090909091 0.40057636888 0.31493506494
          0.10593220339 0 0 0.16759776536 0.3686440678 0.43984962406
          0.44609665428 0.49662162162 0.43984962406 0.3686440678 0.16759776536 0
          0 0.1677852349 0.36734693878 0.43891402715 0.44642857143 0.49593495935
          0.43891402715 0.36734693878 0.1677852349 0
        </DataArray>
        <DataArray type="Float64" Name="Displacement" NumberOfComponents="3" format="ascii" RangeMin="0.69991434955" RangeMax="0.72754141484">
          -0.011106444804 0.70524152416 -0.035742481055 -0.01608056236 0.71054388932 -0.040087594941
          -0.014493124846 0.70955009732 -0.039606315977 -0.01471801707 0.70734345317 -0.037568563749
          -0.014762070533 0.70744853083 -0.038085504331 -0.014860527534 0.70577191967 -0.03718617561
          -0.014768498035 0.70543980008 -0.03759533633 -0.014968558697 0.70592391522 -0.039540367026
          -0.013739580183 0.7054817542 -0.039804786719 -0.018794119785 0.69875667303 -0.035580748625
          -0.016177438989 0.71043244588 -0.038302804146 -0.013055783542 0.70601148249 -0.037672133673
          -0.014561113551 0.70742813329 -0.037560741288 -0.014121355071 0.70733328053 -0.038778908459
          -0.013815761005 0.70681879012 -0.039078433481 -0.013836997365 0.70595333677 -0.038811235173
          -0.013997976256 0.70529149742 -0.038665643359 -0.013527667533 0.7036971569 -0.037399368891
          -0.01511299997 0.70089662809 -0.037351770457 -0.012031466648 0.70389395204 -0.03796018626
          -0.014616243472 0.70912134955 -0.037888456807 -0.011905143765 0.70828474386 -0.04051642031
          -0.014321943252 0.7085748085 -0.039141712562 -0.013104729634 0.70738964317 -0.039776339216
          -0.013223862465 0.70600792624 -0.039095642566 -0.0136001952 0.70642271356 -0.040139750438
          -0.013407974222 0.70537801271 -0.039712342577 -0.012260673617 0.70505845509 -0.039127609086
          -0.01476441495 0.70332253881 -0.040362707768 -0.011977615015 0.70279109507 -0.037590123666
          -0.011259118884 0.70963655529 -0.042496206187 -0.012043185389 0.70965667412 -0.04035338967
          -0.012809447936 0.70805071897 -0.040106326519 -0.012890123043 0.70599324455 -0.03998895249
          -0.012748344288 0.70565020069 -0.039589577347 -0.012672065161 0.70489413671 -0.040133749695
          -0.01255367269 0.70425574875 -0.040088798052 -0.012345328398 0.70464710082 -0.040080784395
          -0.013271872064 0.70456647833 -0.04023186115 -0.013973044495 0.7032638492 -0.042358877383
          -0.011052929882 0.7089832245 -0.042560481692 -0.011741850681 0.70853457267 -0.041486420849
          -0.011210349349 0.70809174757 -0.04108751476 -0.010962057148 0.70756926575 -0.041491972516
          -0.01219316334 0.70543298166 -0.041987138097 -0.012157422382 0.70524941559 -0.041612054488
          -0.012725446439 0.70535913547 -0.041400793937 -0.012535523466 0.70461131033 -0.041121562172
          -0.012197475846 0.70372788144 -0.041375377336 -0.012764018927 0.70265060182 -0.042354692903
          -0.010656595575 0.71021332423 -0.043217949108 -0.010374258437 0.7088392019 -0.042452515138
          -0.01131903024 0.70812746228 -0.041492619799 -0.011060971003 0.7068465846 -0.042241442861
          -0.010564916877 0.70637503526 -0.041637283773 -0.011942840509 0.70574108872 -0.041679710509
          -0.011390517204 0.70473289594 -0.042111327836 -0.011036577405 0.70457562113 -0.04139842385
          -0.01213181589 0.70400954657 -0.042471583415 -0.011752883176 0.70367527418 -0.043037021985
          -0.0075877085801 0.7090501165 -0.045946383092 -0.012232828759 0.70869897564 -0.042036449552
          -0.010344057045 0.70715195536 -0.042961175127 -0.011823539438 0.70623060413 -0.043651556329
          -0.010095298779 0.70813428926 -0.042750488353 -0.011020229129 0.70733850764 -0.042640282099
          -0.0091476934639 0.70395548722 -0.04358569837 -0.01059621548 0.70358965565 -0.042964088614
          -0.0088904618111 0.70374359712 -0.042048009053 -0.013301861283 0.70269185715 -0.045695634238
          -0.0069886726786 0.71186499083 -0.044940206782 -0.010436019646 0.70919236265 -0.042802692807
          -0.0078338592716 0.70787344132 -0.044648882905 -0.0047575648959 0.70754035293 -0.042810222258
          -0.010439720781 0.70554696524 -0.04555675606 -0.0091861278369 0.70482372403 -0.045596218413
          -0.014823046272 0.70544741047 -0.042820685943 -0.011839618569 0.70438546459 -0.04457816391
          -0.0091080207309 0.70419073861 -0.042678065872 -0.012486658516 0.70561902784 -0.044780611913
          -0.0080833936577 0.70926196204 -0.044884359551 -0.0064774737386 0.70583729372 -0.046694608272
          -0.0067275089844 0.70407356501 -0.04743444376 -0.0063945795017 0.70653857934 -0.043797269174
          -0.0087547264399 0.70863044639 -0.045085741246 -0.0092703545945 0.70781212148 -0.044675359216
          -0.011922363854 0.70428596434 -0.043918018679 -0.01142690613 0.70038918029 -0.04737121657
          -0.011776768616 0.70061250471 -0.046760998899 -0.0099930866812 0.70279526914 -0.044652783427
          -0.0062345172397 0.71636407747 -0.039675052787 -0.0069892192086 0.70545045679 -0.051262886382
          -0.006957791113 0.7035175476 -0.049833896694 -0.0067453215184 0.70196653768 -0.051332049831
          -0.011945159956 0.71013092117 -0.044269638575 -0.0044965745378 0.70983511931 -0.044003381887
          -0.010178135585 0.69982433703 -0.051337006022 -0.0099544503176 0.69985834634 -0.049930820032
          -0.0098380820717 0.70060865701 -0.051169740671 -0.0099317760131 0.70971782793 -0.039322461907
          -0.014453307666 0.708332425 -0.038442833531 -0.015246055962 0.71021348577 -0.037439189733
          -0.014400236234 0.70834124222 -0.037077041303 -0.015078139212 0.70778494411 -0.037400707118
          -0.014755952016 0.706987608 -0.037606610275 -0.014668800531 0.70634119546 -0.03707882516
          -0.014692023881 0.70559854035 -0.037453670607 -0.015011091544 0.70465079048 -0.037150485745
          -0.014244283263 0.70528904489 -0.037229617193 -0.015254454654 0.70173215157 -0.038366069213
          -0.016228664195 0.71171672895 -0.03658669679 -0.013934537757 0.71019560885 -0.038132221589
          -0.014418881339 0.70883708371 -0.038151354845 -0.014185407365 0.70800063717 -0.038529350938
          -0.014163113243 0.7066696778 -0.037808945137 -0.0138828289 0.70658645996 -0.038458329423
          -0.013941123664 0.70546869898 -0.038117789804 -0.013822622238 0.70524657239 -0.038038549879
          -0.014092724811 0.70524628616 -0.038038617961 -0.011889285941 0.70521580716 -0.036177125642
          -0.013206725059 0.71032657707 -0.038951335957 -0.013371197078 0.70960934138 -0.039371098663
          -0.013363409034 0.70886895779 -0.039487242051 -0.013392953001 0.70775988053 -0.039129151269
          -0.013362098185 0.70691197821 -0.039008231152 -0.013314858875 0.70632232254 -0.039105728977
          -0.013355628232 0.70558138913 -0.039067220928 -0.013329405814 0.70524456474 -0.03926260838
          -0.013351195193 0.70460001976 -0.039201665057 -0.013458760507 0.70389054112 -0.038838350938
          -0.011075906984 0.709674966 -0.040721661501 -0.011788849314 0.7096117338 -0.040805320383
          -0.01262044345 0.70879173007 -0.040134698507 -0.012578354665 0.70798329025 -0.04030634978
          -0.012667276932 0.70696918391 -0.04002095598 -0.012638433361 0.70621151282 -0.040022903403
          -0.012713330348 0.70578925853 -0.040176553636 -0.012588145345 0.70518653939 -0.040001088723
          -0.013580660779 0.7046139194 -0.040646808994 -0.014145753836 0.70308533574 -0.04064018134
          -0.011367875338 0.7116589329 -0.041349394558 -0.011145358601 0.70968370344 -0.041561356034
          -0.01163952757 0.70900463802 -0.040910074426 -0.011714185765 0.7079708095 -0.041207406394
          -0.01195782559 0.7070239686 -0.041659786888 -0.011936305625 0.70629073379 -0.041717804453
          -0.012103493941 0.70576018836 -0.041266977377 -0.012157696229 0.70538693065 -0.040859384989
          -0.012721294384 0.70475285784 -0.041506140798 -0.012361944677 0.70518890961 -0.041335916151
          -0.010310585837 0.71009168417 -0.042832306908 -0.010630401359 0.70973966587 -0.042214720629
          -0.010925774419 0.70886621185 -0.041967893076 -0.011188661668 0.7079146056 -0.041857869499
          -0.010978329816 0.70713422185 -0.04259652643 -0.011473458819 0.70638282576 -0.042667618608
          -0.011325004094 0.70575545018 -0.041932542529 -0.011352056419 0.70527503809 -0.041788207335
          -0.011775459237 0.70477118005 -0.042123623651 -0.012087397637 0.7035233939 -0.042850625565
          -0.010089478364 0.71043098922 -0.042303640017 -0.0096651428842 0.70959613334 -0.043523047567
          -0.010313213644 0.70889712776 -0.042943835508 -0.010547204347 0.70763554612 -0.04358531104
          -0.010203310974 0.70709798487 -0.043120317472 -0.010789533186 0.70630198646 -0.043097365984
          -0.010452554849 0.70550808727 -0.043496114575 -0.01063059851 0.70533314283 -0.04292977662
          -0.011331167992 0.70455593451 -0.043465346775 -0.010891313199 0.70402276724 -0.042320401018
          -0.0082879829526 0.71101804699 -0.044374639698 -0.008872586931 0.70954351544 -0.044267263731
          -0.0087479652911 0.70887483026 -0.044320471612 -0.0094956400015 0.70819362605 -0.043293106528
          -0.0079169148062 0.70652273461 -0.043555245484 -0.011776466479 0.70571462099 -0.04356765696
          -0.010156847607 0.70595506748 -0.0431671808 -0.010723968475 0.70529739542 -0.044227278308
          -0.010720639349 0.70456782846 -0.044178911055 -0.011325338571 0.70472070817 -0.044531764462
          -0.0073651137857 0.71198196121 -0.044924446967 -0.0072248913518 0.7090113291 -0.046306058489
          -0.0069541666944 0.70932068141 -0.044781493245 -0.0069850529997 0.70858482819 -0.043596528252
          -0.0055527157243 0.70694175755 -0.042713254961 -0.012646538656 0.70620717869 -0.042641176427
          -0.011192167388 0.70644671573 -0.043532827275 -0.011152571944 0.70580364277 -0.044680553844
          -0.010921175347 0.70408404607 -0.046172949029 -0.010588524672 0.7053691984 -0.044793261582
          -0.0089994590725 0.70836525276 -0.048544122904 -0.0042551417934 0.708714038 -0.050405337156
          -0.0056738705396 0.7088708228 -0.045500714219 -0.0086204357694 0.71032307441 -0.042949943486
          -0.00728403108 0.70630795426 -0.045631363933 -0.0095266306179 0.70570043204 -0.045493001557
          -0.0079863442717 0.70805463516 -0.043046811757 -0.010964872921 0.70530555523 -0.045439254333
          -0.012382391615 0.70387586189 -0.049988475428 -0.0077183415154 0.70186964782 -0.04836088394
          -0.015262513306 0.71169097156 -0.037534521394 -0.015783429949 0.7113013337 -0.037377658262
          -0.015641149599 0.70966483032 -0.036798034866 -0.014435008282 0.70885945726 -0.037507110985
          -0.014827409261 0.70909419465 -0.038188116598 -0.014625898179 0.7081259933 -0.038056397776
          -0.015047710957 0.70673603927 -0.037430384295 -0.014003766389 0.706119162 -0.036911054936
          -0.013668096709 0.7062466686 -0.03729059051 -0.014598888333 0.70510593515 -0.037275277455
          -0.014083746062 0.71162759382 -0.038897130576 -0.014872522778 0.7106617909 -0.037769440843
          -0.01437453597 0.70989371016 -0.038287094229 -0.01431141244 0.70906607414 -0.038342731225
          -0.014126850047 0.70817292231 -0.038300239745 -0.014048854674 0.70748602594 -0.038342238178
          -0.013841724335 0.70689218922 -0.038197798305 -0.013807263363 0.70620200518 -0.038146851207
          -0.01324378938 0.70565669188 -0.037657937128 -0.014061122602 0.7053158285 -0.038684495518
          -0.013623055162 0.71140347427 -0.038948711042 -0.013252784846 0.71064251134 -0.03940077566
          -0.013270425671 0.70967265389 -0.039210264633 -0.013409357667 0.70884013731 -0.039194270521
          -0.013352548821 0.70808593677 -0.039216405511 -0.013324112483 0.70731257152 -0.039274660671
          -0.013334602818 0.70674086428 -0.039184728285 -0.013431949379 0.70609616401 -0.0391402993
          -0.013418409567 0.70563031671 -0.03923104155 -0.013018309113 0.70499219886 -0.038791169767
          -0.012728178836 0.71153740397 -0.039933248983 -0.012591890135 0.71071732383 -0.040343949426
          -0.012592374883 0.70972349959 -0.040159089727 -0.0127174257 0.70885823688 -0.040217514338
          -0.012616318479 0.70808447125 -0.040181473537 -0.012612666392 0.70726382096 -0.040192341059
          -0.012585893616 0.70673423146 -0.040165850587 -0.012692096613 0.70613598895 -0.040117991697
          -0.012645779895 0.70572426101 -0.040261010889 -0.012531736976 0.70513274723 -0.039732449874
          -0.011752992351 0.71139811544 -0.041104101752 -0.011725620362 0.71062761868 -0.041202536975
          -0.01185427746 0.70974750272 -0.041144860405 -0.011916969529 0.70899637013 -0.041212551872
          -0.011934135938 0.70809422809 -0.041224083509 -0.011927230158 0.70727833838 -0.041243364548
          -0.012052264951 0.70685956169 -0.041158856034 -0.011975915287 0.70614766416 -0.041073444916
          -0.012044712895 0.7056267648 -0.041099136816 -0.012035477556 0.70499734125 -0.041021720662
          -0.01094502207 0.71088266292 -0.04215007272 -0.010852795531 0.71073004568 -0.042072788812
          -0.010926587974 0.70977189672 -0.042113015033 -0.010783928735 0.70901249727 -0.042111826147
          -0.01071997449 0.70808031497 -0.041985323735 -0.011643129796 0.70728809795 -0.042074146329
          -0.011820355312 0.70689379109 -0.042069897596 -0.011307079145 0.70615833187 -0.042031752858
          -0.011556544011 0.70576097467 -0.041952121214 -0.011465207329 0.70444343264 -0.042057628278
          -0.0095503847682 0.71190441706 -0.043374536987 -0.011272987456 0.71057294525 -0.042439060141
          -0.010240697161 0.70983193403 -0.042957562985 -0.010904968001 0.7087358785 -0.043251738125
          -0.010796190967 0.70818131288 -0.043344946733 -0.010265432177 0.707350884 -0.043459886492
          -0.01017622754 0.70662346646 -0.043183306445 -0.010796492265 0.70626038696 -0.042917672229
          -0.0097210896024 0.70558161186 -0.04235780138 -0.011412338146 0.70544758679 -0.043299427591
          -0.009325078407 0.71135828995 -0.043903813733 -0.0089560870575 0.71067003142 -0.044368388919
          -0.0090759573431 0.71000596259 -0.043948700164 -0.0093435693178 0.7087845222 -0.043987870856
          -0.0091562163845 0.70817598681 -0.043789842781 -0.010465741689 0.70741123925 -0.043866223295
          -0.010282630132 0.70669895508 -0.043939836019 -0.010457209453 0.70643665149 -0.043880718927
          -0.010624814261 0.7056624665 -0.044303238879 -0.010256680272 0.70492150156 -0.04386109845
          -0.0088139605604 0.71156323396 -0.044718959341 -0.0079601331483 0.71111179762 -0.045086702095
          -0.0092033314003 0.70994614951 -0.044680731885 -0.0080871412038 0.70879620628 -0.044594070042
          -0.0087515839661 0.70772146869 -0.045207886742 -0.0095053543067 0.70691300991 -0.045137922767
          -0.010093621645 0.70657363565 -0.044571335209 -0.0090163862375 0.70636459883 -0.044591854401
          -0.010198249491 0.70613815064 -0.044983231274 -0.0091766408304 0.70501813882 -0.044592291531
          -0.0058290941287 0.71410269728 -0.045248959843 -0.0059925688745 0.71059923749 -0.047822258279
          -0.0055101286038 0.70881144918 -0.047109611358 -0.010995261907 0.70910063683 -0.046328063847
          -0.0082843873053 0.70988985786 -0.045069320623 -0.0083719540103 0.70926707516 -0.045033937019
          -0.0058463218531 0.70693712208 -0.046228368253 -0.01131548797 0.70539896959 -0.047015625336
          -0.010512197884 0.70552861929 -0.047632254596 -0.011105946599 0.7078768152 -0.045244103663
          -0.013815273176 0.71139611069 -0.038014263067 -0.01609182024 0.71199208743 -0.037212684358
          -0.014939228751 0.7106663509 -0.03751794932 -0.014496897986 0.7096120547 -0.037467828841
          -0.014856146573 0.70912286334 -0.037651196206 -0.014869115216 0.70848181183 -0.03758227325
          -0.015411235136 0.70730380576 -0.037442929752 -0.014741385871 0.70711590378 -0.037464298651
          -0.013437111666 0.70686417745 -0.037094996996 -0.015971319438 0.70487145131 -0.037810469804
          -0.015260268538 0.71359882718 -0.03830253967 -0.014145329887 0.71156156272 -0.038643508069
          -0.014092954807 0.71061471187 -0.038376103486 -0.014017621991 0.7095496889 -0.038243894805
          -0.014081443253 0.70904161837 -0.038306398902 -0.01406789232 0.7083192433 -0.038287238364
          -0.014179552932 0.70732955399 -0.038158530403 -0.014068297465 0.7069882736 -0.038239703825
          -0.014073754673 0.70654510883 -0.038576774279 -0.012817949197 0.70725072819 -0.038064390627
          -0.013504330552 0.71248951946 -0.039376131562 -0.013188562302 0.71140331819 -0.039307664422
          -0.013489623465 0.71077633945 -0.039311628013 -0.013405226449 0.70978793939 -0.039312643863
          -0.013403909014 0.70908366945 -0.039273321374 -0.013311769748 0.70829679025 -0.039269496224
          -0.01336674476 0.70769701666 -0.039230960474 -0.013230713889 0.70720372332 -0.039298557818
          -0.013576037119 0.70637893042 -0.039191012862 -0.01324496263 0.70609580652 -0.039182888388
          -0.012692455334 0.71231678315 -0.040379130663 -0.012731203001 0.71160384235 -0.040216539026
          -0.012631904545 0.71065973959 -0.04028071475 -0.012627546679 0.70982179186 -0.040290649333
          -0.012679516984 0.70899718782 -0.04020825255 -0.012572340591 0.70838467738 -0.040255345393
          -0.012686039151 0.70762413624 -0.04020516536 -0.012664731436 0.70709159521 -0.040239152348
          -0.012670574034 0.7066055404 -0.040154294326 -0.012681392605 0.70584443008 -0.040231855549
          -0.011865110386 0.71243517999 -0.041136788021 -0.012055117119 0.71149699676 -0.041122446661
          -0.011876639597 0.71073564821 -0.041303779758 -0.01196286653 0.70984735217 -0.041274285406
          -0.011937088358 0.70897709456 -0.041197487725 -0.011824404258 0.70824347506 -0.041235544703
          -0.011958092614 0.70765950597 -0.041206054595 -0.011945703077 0.70713275125 -0.041197592412