<?xml version="1.0"?>
<VTKFile type="UnstructuredGrid" version="0.1" byte_order="LittleEndian" compressor="vtkZLibDataCompressor">
  <UnstructuredGrid>
    <FieldData>
      <DataArray type="Float64" Name="TIME" NumberOfTuples="1" format="ascii" RangeMin="0.077478558158" RangeMax="0.077478558158">
        0.077478558158
      </DataArray>
    </FieldData>
    <Piece NumberOfPoints="8" NumberOfCells="0">
      <PointData>
        <DataArray type="Float64" Name="ID" format="ascii" RangeMin="1" RangeMax="8">
          1 2 3 4 5 6
          7 8
        </DataArray>
        <DataArray type="Float64" Name="Density" format="ascii" RangeMin="2440" RangeMax="2440">
          2440 2440 2440 2440 2440 2440
          2440 2440
        </DataArray>
        <DataArray type="Float64" Name="numAdjacentElements" format="ascii" RangeMin="1" RangeMax="1">
          1 1 1 1 1 1
          1 1
        </DataArray>
        <DataArray type="Float64" Name="initialFamilySize" format="ascii" RangeMin="7" RangeMax="7">
          7 7 7 7 7 7
          7 7
        </DataArray>
        <DataArray type="Float64" Name="currentFamilySize" format="ascii" RangeMin="7" RangeMax="7">
          7 7 7 7 7 7
          7 7
        </DataArray>
        <DataArray type="Float64" Name="horizonSize" format="ascii" RangeMin="4.01" RangeMax="4.01">
          4.01 4.01 4.01 4.01 4.01 4.01
          4.01 4.01
        </DataArray>
        <DataArray type="Float64" Name="Mass" format="ascii" RangeMin="305" RangeMax="305">
          305 305 305 305 305 305
          305 305
        </DataArray>
        <DataArray type="Float64" Name="Volume" format="ascii" RangeMin="0.125" RangeMax="0.125">
          0.125 0.125 0.125 0.125 0.125 0.125
          0.125 0.125
        </DataArray>
        <DataArray type="Float64" Name="Micromodulus" format="ascii" RangeMin="0" RangeMax="0">
          0 0 0 0 0 0
          0 0
        </DataArray>
        <DataArray type="Float64" Name="FractureEnergy" format="ascii" RangeMin="135" RangeMax="135">
          135 135 135 135 135 135
          135 135
        </DataArray>
        <DataArray type="Float64" Name="Damage" format="ascii" RangeMin="0" RangeMax="0">
          0 0 0 0 0 0
          0 0
        </DataArray>
        <DataArray type="Float64" Name="Displacement" NumberOfComponents="3" format="ascii" RangeMin="0.77478558158" RangeMax="0.77478558158">
          0 0.77478558158 0 0 0.77478558158 0
          0 0.77478558158 0 0 0.77478558158 0
          0 0.77478558158 0 0 0.77478558158 0
          0 0.77478558158 0 0 0.77478558158 0
        </DataArray>
        <DataArray type="Float64" Name="Velocity" NumberOfComponents="3" format="ascii" RangeMin="10" RangeMax="10">
          0 10 0 0 10 0
          0 10 0 0 10 0
          0 10 0 0 10 0
          0 10 0 0 10 0
        </DataArray>
        <DataArray type="Float64" Name="Internal Force" NumberOfComponents="3" format="ascii" RangeMin="0" RangeMax="0">
          0 0 0 0 0 0
          0 0 0 0 0 0
          0 0 0 0 0 0
          0 0 0 0 0 0
        </DataArray>
        <DataArray type="Float64" Name="External Force" NumberOfComponents="3" format="ascii" RangeMin="0" RangeMax="0">
          0 0 0 0 0 0
          0 0 0 0 0 0
          0 0 0 0 0 0
          0 0 0 0 0 0
        </DataArray>
      </PointData>
      <CellData>
      </CellData>
      <Points>
        <DataArray type="Float32" Name="Points" NumberOfComponents="3" format="ascii" RangeMin="4.2070696066" RangeMax="5.852265007">
          3 2.7747855186 1 4 2.7747855186 1
          3 3.7747855186 1 4 3.7747855186 1
          3 2.7747855186 2 4 2.7747855186 2
          3 3.7747855186 2 4 3.7747855186 2
        </DataArray>
      </Points>
      <Cells>
        <DataArray type="Int32" Name="connectivity" format="ascii" RangeMin="1e+299" RangeMax="-1e+299">
        </DataArray>
        <DataArray type="Int32" Name="offsets" format="ascii" RangeMin="1e+299" RangeMax="-1e+299">
        </DataArray>
        <DataArray type="UInt8" Name="types" format="ascii" RangeMin="1e+299" RangeMax="-1e+299">
        </DataArray>
      </Cells>
    </Piece>
  </UnstructuredGrid>
</VTKFile>
