<?xml version="1.0"?>
<VTKFile type="UnstructuredGrid" version="0.1" byte_order="LittleEndian" compressor="vtkZLibDataCompressor">
  <UnstructuredGrid>
    <FieldData>
      <DataArray type="Float64" Name="TIME" NumberOfTuples="1" format="ascii" RangeMin="0.28816820644" RangeMax="0.28816820644">
        0.28816820644
      </DataArray>
    </FieldData>
    <Piece NumberOfPoints="1000" NumberOfCells="0">
      <PointData>
        <DataArray type="Float64" Name="Damage" format="ascii" RangeMin="0" RangeMax="0.49719101124">
          0 0 0 0 0 0
          0 0 0 0 0 0.027932960894
          0 0 0 0 0 0
          0.027932960894 0 0 0.055084745763 0.071428571429 0.040345821326
          0.014164305949 0.012987012987 0.040345821326 0.071428571429 0.055084745763 0
          0 0.067669172932 0.11239193084 0.1074168798 0.037688442211 0.034562211982
          0.1074168798 0.11239193084 0.067669172932 0 0 0.074349442379
          0.16147308782 0.16834170854 0.12376237624 0.11286681716 0.16834170854 0.16147308782
          0.074349442379 0 0 0.084459459459 0.2 0.25806451613
          0.33860045147 0.39211618257 0.25806451613 0.2 0.084459459459 0
          0 0.093984962406 0.25360230548 0.36061381074 0.41959798995 0.46774193548
          0.36061381074 0.25360230548 0.093984962406 0 0 0.10593220339
          0.31493506494 0.40057636888 0.4447592068 0.49090909091 0.40057636888 0.31493506494
          0.10593220339 0 0 0.16759776536 0.3686440678 0.43984962406
          0.44609665428 0.49662162162 0.43984962406 0.3686440678 0.16759776536 0
          0 0.1677852349 0.36734693878 0.43891402715 0.44642857143 0.49593495935
          0.43891402715 0.36734693878 0.1677852349 0 0 0
          0 0 0 0 0 0
          0 0 0 0.027906976744 0 0
          0 0 0 0 0.027906976744 0
          0 0.056338028169 0.072776280323 0.040669856459 0.014117647059 0.012931034483
          0.040669856459 0.072776280323 0.056338028169 0 0 0.06875
          0.11483253589 0.10828025478 0.0375782881 0.034416826004 0.10828025478 0.11483253589
          0.06875 0 0 0.074303405573 0.16235294118 0.16910229645
          0.12371134021 0.11257035647 0.16910229645 0.16235294118 0.074303405573 0
          0 0.084269662921 0.20043103448 0.25812619503 0.33771106942 0.39242685026
          0.25812619503 0.20043103448 0.084269662921 0 0 0.09375
          0.25358851675 0.36093418259 0.41962421712 0.46845124283 0.36093418259 0.25358851675
          0.09375 0 0 0.10563380282 0.3153638814 0.4019138756
          0.44470588235 0.49137931034 0.4019138756 0.3153638814 0.10563380282 0
          0 0.16744186047 0.36971830986 0.440625 0.44582043344 0.49719101124
          0.440625 0.36971830986 0.16744186047 0 0 0.16759776536
          0.3686440678 0.43984962406 0.44609665428 0.49662162162 0.43984962406 0.3686440678
          0.16759776536 0 0 0 0 0
          0 0 0 0 0 0
          0 0.024647887324 0 0 0 0
          0 0 0.024647887324 0 0 0.051212938005
          0.06875 0.038817005545 0.012635379061 0.011666666667 0.038817005545 0.06875
          0.051212938005 0 0 0.064593301435 0.10905730129 0.10491803279
          0.036858974359 0.034023668639 0.10491803279 0.10905730129 0.064593301435 0
          0 0.070588235294 0.15523465704 0.16506410256 0.12283464567 0.11271676301
          0.16506410256 0.15523465704 0.070588235294 0 0 0.081896551724
          0.19333333333 0.25443786982 0.33959537572 0.38985313752 0.25443786982 0.19333333333
          0.081896551724 0 0 0.093301435407 0.24768946396 0.35573770492
          0.41987179487 0.46449704142 0.35573770492 0.24768946396 0.093301435407 0
          0 0.10781671159 0.30833333333 0.39556377079 0.4440433213 0.48666666667
          0.39556377079 0.30833333333 0.10781671159 0 0 0.16197183099
          0.35579514825 0.43062200957 0.44470588235 0.49137931034 0.43062200957 0.35579514825
          0.16197183099 0 0 0.16101694915 0.3538961039 0.42939481268
          0.4447592068 0.49090909091 0.42939481268 0.3538961039 0.16101694915 0
          0 0 0 0 0 0
          0 0 0 0 0 0.025
          0 0 0 0 0 0
          0.025 0 0 0.05023923445 0.068391866913 0.039344262295
          0.012820512821 0.011834319527 0.039344262295 0.068391866913 0.05023923445 0
          0 0.063694267516 0.10819672131 0.10465116279 0.036984352774 0.034120734908
          0.10465116279 0.10819672131 0.063694267516 0 0 0.070981210856
          0.15544871795 0.16500711238 0.12290502793 0.11282051282 0.16500711238 0.15544871795
          0.070981210856 0 0 0.082217973231 0.19378698225 0.25459317585
          0.33974358974 0.38981042654 0.25459317585 0.19378698225 0.082217973231 0
          0 0.093418259023 0.24918032787 0.35610465116 0.41963015647 0.46456692913
          0.35610465116 0.24918032787 0.093418259023 0 0 0.10765550239
          0.30868761553 0.39508196721 0.44391025641 0.48668639053 0.39508196721 0.30868761553
          0.10765550239 0 0 0.1625 0.35645933014 0.43099787686
          0.44467640919 0.4913957935 0.43099787686 0.35645933014 0.1625 0
          0 0.16165413534 0.35446685879 0.42966751918 0.44472361809 0.49078341014
          0.42966751918 0.35446685879 0.16165413534 0 0 0
          0 0 0 0 0 0
          0 0 0 0.02786377709 0 0
          0 0 0 0 0.02786377709 0
          0 0.054117647059 0.070397111913 0.040064102564 0.014173228346 0.013005780347
          0.040064102564 0.070397111913 0.054117647059 0 0 0.066805845511
          0.11057692308 0.106685633 0.037709497207 0.034615384615 0.106685633 0.11057692308
          0.066805845511 0 0 0.074226804124 0.16062992126 0.16759776536
          0.12362637363 0.11292346299 0.16759776536 0.16062992126 0.074226804124 0
          0 0.084427767355 0.19942196532 0.25769230769 0.33877038896 0.39145496536
          0.25769230769 0.19942196532 0.084427767355 0 0 0.093945720251
          0.25320512821 0.35988620199 0.41899441341 0.46666666667 0.35988620199 0.25320512821
          0.093945720251 0 0 0.10588235294 0.31407942238 0.39903846154
          0.44409448819 0.48988439306 0.39903846154 0.31407942238 0.10588235294 0
          0 0.16718266254 0.36705882353 0.43841336117 0.44536082474 0.49530956848
          0.43841336117 0.36705882353 0.16718266254 0 0 0.16728624535
          0.36543909348 0.43718592965 0.44554455446 0.49435665914 0.43718592965 0.36543909348
          0.16728624535 0 0 0 0 0
          0 0 0 0 0 0
          0 0.025280898876 0 0 0 0
          0 0 0.025280898876 0 0 0.049568965517
          0.066666666667 0.038461538462 0.013005780347 0.012016021362 0.038461538462 0.066666666667
          0.049568965517 0 0 0.06309751434 0.1050295858 0.10367454068
          0.037179487179 0.034360189573 0.10367454068 0.1050295858 0.06309751434 0
          0 0.071294559099 0.15462427746 0.1641025641 0.12296110414 0.11316397229
          0.1641025641 0.15462427746 0.071294559099 0 0 0.082616179002
          0.19359145527 0.25473933649 0.34064665127 0.38930481283 0.25473933649 0.19359145527
          0.082616179002 0 0 0.093690248566 0.24852071006 0.35564304462
          0.41923076923 0.46327014218 0.35564304462 0.24852071006 0.093690248566 0
          0 0.10775862069 0.30833333333 0.39349112426 0.4436416185 0.48598130841
          0.39349112426 0.30833333333 0.10775862069 0 0 0.16292134831
          0.35560344828 0.43021032505 0.44465290807 0.49053356282 0.43021032505 0.35560344828
          0.16292134831 0 0 0.16216216216 0.35324675325 0.42857142857
          0.44469525959 0.48962655602 0.42857142857 0.35324675325 0.16216216216 0
          0 0 0 0 0 0
          0 0 0 0 0 0.025
          0 0 0 0 0 0
          0.025 0 0 0.05023923445 0.068391866913 0.039344262295
          0.012820512821 0.011834319527 0.039344262295 0.068391866913 0.05023923445 0
          0 0.063694267516 0.10819672131 0.10465116279 0.036984352774 0.034120734908
          0.10465116279 0.10819672131 0.063694267516 0 0 0.070981210856
          0.15544871795 0.16500711238 0.12290502793 0.11282051282 0.16500711238 0.15544871795
          0.070981210856 0 0 0.082217973231 0.19378698225 0.25459317585
          0.33974358974 0.38981042654 0.25459317585 0.19378698225 0.082217973231 0
          0 0.093418259023 0.24918032787 0.35610465116 0.41963015647 0.46456692913
          0.35610465116 0.24918032787 0.093418259023 0 0 0.10765550239
          0.30868761553 0.39508196721 0.44391025641 0.48668639053 0.39508196721 0.30868761553
          0.10765550239 0 0 0.1625 0.35645933014 0.43099787686
          0.44467640919 0.4913957935 0.43099787686 0.35645933014 0.1625 0
          0 0.16165413534 0.35446685879 0.42966751918 0.44472361809 0.49078341014
          0.42966751918 0.35446685879 0.16165413534 0 0 0
          0 0 0 0 0 0
          0 0 0 0.024647887324 0 0
          0 0 0 0 0.024647887324 0
          0 0.051212938005 0.06875 0.038817005545 0.012635379061 0.011666666667
          0.038817005545 0.06875 0.051212938005 0 0 0.064593301435
          0.10905730129 0.10491803279 0.036858974359 0.034023668639 0.10491803279 0.10905730129
          0.064593301435 0 0 0.070588235294 0.15523465704 0.16506410256
          0.12283464567 0.11271676301 0.16506410256 0.15523465704 0.070588235294 0
          0 0.081896551724 0.19333333333 0.25443786982 0.33959537572 0.38985313752
          0.25443786982 0.19333333333 0.081896551724 0 0 0.093301435407
          0.24768946396 0.35573770492 0.41987179487 0.46449704142 0.35573770492 0.24768946396
          0.093301435407 0 0 0.10781671159 0.30833333333 0.39556377079
          0.4440433213 0.48666666667 0.39556377079 0.30833333333 0.10781671159 0
          0 0.16197183099 0.35579514825 0.43062200957 0.44470588235 0.49137931034
          0.43062200957 0.35579514825 0.16197183099 0 0 0.16101694915
          0.3538961039 0.42939481268 0.4447592068 0.49090909091 0.42939481268 0.3538961039
          0.16101694915 0 0 0 0 0
          0 0 0 0 0 0
          0 0.027906976744 0 0 0 0
          0 0 0.027906976744 0 0 0.056338028169
          0.072776280323 0.040669856459 0.014117647059 0.012931034483 0.040669856459 0.072776280323
          0.056338028169 0 0 0.06875 0.11483253589 0.10828025478
          0.0375782881 0.034416826004 0.10828025478 0.11483253589 0.06875 0
          0 0.074303405573 0.16235294118 0.16910229645 0.12371134021 0.11257035647
          0.16910229645 0.16235294118 0.074303405573 0 0 0.084269662921
          0.20043103448 0.25812619503 0.33771106942 0.39242685026 0.25812619503 0.20043103448
          0.084269662921 0 0 0.09375 0.25358851675 0.36093418259
          0.41962421712 0.46845124283 0.36093418259 0.25358851675 0.09375 0
          0 0.10563380282 0.3153638814 0.4019138756 0.44470588235 0.49137931034
          0.4019138756 0.3153638814 0.10563380282 0 0 0.16744186047
          0.36971830986 0.440625 0.44582043344 0.49719101124 0.440625 0.36971830986
          0.16744186047 0 0 0.16759776536 0.3686440678 0.43984962406
          0.44609665428 0.49662162162 0.43984962406 0.3686440678 0.16759776536 0
          0 0 0 0 0 0
          0 0 0 0 0 0.027932960894
          0 0 0 0 0 0
          0.027932960894 0 0 0.055084745763 0.071428571429 0.040345821326
          0.014164305949 0.012987012987 0.040345821326 0.071428571429 0.055084745763 0
          0 0.067669172932 0.11239193084 0.1074168798 0.037688442211 0.034562211982
          0.1074168798 0.11239193084 0.067669172932 0 0 0.074349442379
          0.16147308782 0.16834170854 0.12376237624 0.11286681716 0.16834170854 0.16147308782
          0.074349442379 0 0 0.084459459459 0.2 0.25806451613
          0.33860045147 0.39211618257 0.25806451613 0.2 0.084459459459 0
          0 0.093984962406 0.25360230548 0.36061381074 0.41959798995 0.46774193548
          0.36061381074 0.25360230548 0.093984962406 0 0 0.10593220339
          0.31493506494 0.40057636888 0.4447592068 0.49090909091 0.40057636888 0.31493506494
          0.10593220339 0 0 0.16759776536 0.3686440678 0.43984962406
          0.44609665428 0.49662162162 0.43984962406 0.3686440678 0.16759776536 0
          0 0.1677852349 0.36734693878 0.43891402715 0.44642857143 0.49593495935
          0.43891402715 0.36734693878 0.1677852349 0
        </DataArray>
        <DataArray type="Float64" Name="Displacement" NumberOfComponents="3" format="ascii" RangeMin="1.2242519453" RangeMax="1.2467453083">
          -0.014029214158 1.2408146487 -0.025487374598 -0.010443653756 1.2370509075 -0.023257059499
          -0.0084947498611 1.2327087579 -0.021008781407 -0.009329387346 1.2337178483 -0.021404181373
          -0.0090317618871 1.2331901252 -0.021583102262 -0.0092074280113 1.2337944915 -0.022033052211
          -0.0089274956198 1.2322634613 -0.021390963544 -0.0098121284003 1.2304116678 -0.021057751585
          -0.0077405758811 1.2338872702 -0.023297794024 -0.0039422118918 1.2367694297 -0.025425964633
          -0.0082801908929 1.2372568562 -0.023674362717 -0.0075788767003 1.2340898143 -0.023426936966
          -0.0085285201514 1.2351135445 -0.023465687291 -0.0092914139422 1.2344754109 -0.023088699062
          -0.0087847007675 1.2341371744 -0.023602243335 -0.008649236775 1.2338524977 -0.023347923782
          -0.0081313715754 1.2330658357 -0.023005065957 -0.0088951380426 1.232739873 -0.023348736832
          -0.0097633225998 1.2310149072 -0.023443761371 -0.0091065569136 1.2330563099 -0.023783683609
          -0.008814738551 1.2361957196 -0.023539802895 -0.0084373605065 1.2359054067 -0.023920396303
          -0.0077712758066 1.234257987 -0.024114498993 -0.008294415531 1.2346773734 -0.023985546318
          -0.0081162945206 1.2338581742 -0.023650242608 -0.0080628909383 1.2326854625 -0.023228086971
          -0.0080196059467 1.2333530312 -0.023900388122 -0.0087321849804 1.2319677277 -0.024102704927
          -0.0079994899898 1.2326976818 -0.023877106831 -0.0077240982972 1.2320515662 -0.023474750262
          -0.0083439386404 1.237227648 -0.024606935444 -0.007203318946 1.2360001618 -0.024152558599
          -0.0079080002131 1.2350998034 -0.0247998845 -0.0080242360551 1.2347666071 -0.024815388443
          -0.0075303127612 1.2338971435 -0.024236589656 -0.0076692755885 1.2336482725 -0.024131498036
          -0.0077236394286 1.2336219888 -0.024974861137 -0.0075803527696 1.2329064316 -0.024787716549
          -0.0082712859214 1.2327883259 -0.023998128265 -0.0072752417368 1.2330835665 -0.024584142857
          -0.0067819934946 1.2354953948 -0.025716451952 -0.0073472116101 1.2349996736 -0.025127323238
          -0.0075513863089 1.2350158913 -0.025265119688 -0.0072372914388 1.2350454327 -0.025271069293
          -0.0076860603074 1.2340517186 -0.025203881077 -0.0074023388711 1.2336720149 -0.024970008442
          -0.0072544031594 1.2336006456 -0.025236304867 -0.0070634958554 1.2327500518 -0.025208414885
          -0.0071744539803 1.2318840391 -0.02499656984 -0.0078657699497 1.2313989396 -0.025680395623
          -0.0068915750933 1.2355330547 -0.026431827039 -0.0068716357062 1.2357992192 -0.025056381981
          -0.006214906895 1.2351121921 -0.026236140729 -0.0064594489693 1.2348638546 -0.025958224305
          -0.009374426821 1.2333407123 -0.027109464494 -0.0043205485554 1.2327311567 -0.02722463169
          -0.007294168998 1.2334871537 -0.025980601154 -0.0074344939232 1.2328969313 -0.026100821714
          -0.0067627138113 1.2324986487 -0.02492240072 -0.0067946400097 1.2313603379 -0.026379450301
          -0.0078708016318 1.2364009538 -0.025200452018 -0.0048219437785 1.2355921226 -0.027049999008
          -0.0058499586692 1.2351096166 -0.026955428656 -0.0057695344095 1.2351964931 -0.025746536718
          -0.0068376453667 1.2337003898 -0.027656719785 -0.0058545608168 1.2332262801 -0.027688143124
          -0.0070204721289 1.2339193673 -0.025717304128 -0.0069148942657 1.2328403315 -0.026954242456
          -0.0079365142161 1.2323324454 -0.026999909065 -0.004871401282 1.2322785187 -0.025102943386
          -0.0055638051829 1.2383001584 -0.026477109551 -0.0040873599946 1.2357725502 -0.028638773815
          -0.0054648357106 1.23504063 -0.027671777276 -0.0064625338307 1.2348115331 -0.027535469239
          -0.0078182266978 1.234082855 -0.028825079129 -0.0040466889879 1.233620829 -0.028865070824
          -0.0053724945037 1.2334157515 -0.027543113591 -0.0063148841779 1.2327518177 -0.02763943042
          -0.007692991273 1.2326117288 -0.028486796906 -0.0062818863516 1.234191233 -0.026451773709
          -0.0054169280202 1.2362523627 -0.026817238099 -0.0057250663212 1.2358783416 -0.027693972103
          -0.005720866096 1.236391492 -0.026816930667 -0.0032055968582 1.2345446118 -0.026769995213
          -0.0071210418698 1.2336307406 -0.031400570047 -0.0039125249788 1.233061585 -0.031122119318
          -0.0078272031221 1.2331625048 -0.026627315558 -0.0053782483855 1.2341423346 -0.026727899754
          -0.0053500902569 1.2327181288 -0.027657144196 -0.0057834209643 1.2320453342 -0.027071904676
          -0.0085139595888 1.2278666055 -0.031266184404 -0.0053570001564 1.2327246625 -0.032470464778
          -0.0060941502906 1.2339986489 -0.029726128027 -0.002582053366 1.2341867247 -0.027611537603
          0.0015017060687 1.2359071525 -0.019595740105 -0.011772773053 1.2353852948 -0.019606354706
          -0.0076460126992 1.2327610125 -0.027626568473 -0.0039150881791 1.2317146379 -0.029724482381
          -0.0046831385506 1.2294738976 -0.032467272282 -0.0016126696433 1.2238560036 -0.031091920649
          -0.0087445077966 1.2367524469 -0.02218812118 -0.0077601003469 1.2361376815 -0.024120697888
          -0.0086034298509 1.2353691199 -0.022322744097 -0.0096424967023 1.2351298744 -0.022153654617
          -0.009237554683 1.2345920166 -0.022353839678 -0.0090297896902 1.234133493 -0.02226235295
          -0.0086479129 1.2337693652 -0.022049309846 -0.0097085537845 1.2329762316 -0.022159055776
          -0.010539679249 1.2329364816 -0.024131331603 -0.0094804433074 1.2326306253 -0.022035073615
          -0.0078887926994 1.2370093268 -0.024528998655 -0.0087279286048 1.2360866995 -0.023527224698
          -0.0082536557268 1.2359080395 -0.023772810468 -0.0083321768122 1.2360135651 -0.024260530333
          -0.0086611312956 1.2356514649 -0.023961207043 -0.0086977673621 1.2356781943 -0.024494727103
          -0.0090374889224 1.2345820801 -0.024168934895 -0.0091368887201 1.2335971581 -0.023735062362
          -0.0086683395526 1.2328494344 -0.023509508741 -0.0095150939734 1.2328804049 -0.024392568864
          -0.0071382413764 1.2365437486 -0.025126572506 -0.0082086073025 1.2361717534 -0.023750359882
          -0.0080646916392 1.2362164356 -0.024363261114 -0.0082143410197 1.2354356452 -0.023871946047
          -0.008295225827 1.2349598283 -0.023710798555 -0.0081787605619 1.2345437596 -0.023739878076
          -0.0081940440345 1.2340714042 -0.023794263172 -0.0083567260493 1.2338961967 -0.024223461975
          -0.0082707692278 1.2329236484 -0.023708720245 -0.0093132027232 1.2324292159 -0.0250051695
          -0.0076935945728 1.2374390841 -0.024770512614 -0.0074496383686 1.2366396605 -0.024865656859
          -0.0078128301422 1.2358126824 -0.024493855977 -0.0074782790911 1.2359549854 -0.025454380538
          -0.0077804559629 1.2351297108 -0.024684013902 -0.0077676188334 1.2346430129 -0.024652593868
          -0.0081376549693 1.2346223402 -0.025461573393 -0.0077605873589 1.2335307911 -0.02448916954
          -0.008087288107 1.233442583 -0.024834583087 -0.0078841101649 1.2333626154 -0.024665402872
          -0.007482053713 1.2383670715 -0.025442777421 -0.0069311012484 1.2365519168 -0.025716311382
          -0.0076301587605 1.2359303485 -0.025096721372 -0.0074896667208 1.2355955584 -0.024832745146
          -0.0073274257349 1.2351815832 -0.025002353024 -0.0072800301712 1.2346022342 -0.025098621196
          -0.0071918599235 1.2342362905 -0.024843750724 -0.0070169078536 1.2336247973 -0.025053469105
          -0.0076852032081 1.2333484425 -0.02568164488 -0.0072002540338 1.2342044331 -0.025353588006
          -0.0070178466721 1.2369303157 -0.025462871072 -0.0063238397942 1.2367539945 -0.02584512701
          -0.0064935942496 1.2361433559 -0.026030316641 -0.007056049299 1.2354382564 -0.025982382434
          -0.0069379358833 1.2351343191 -0.026166892909 -0.0067642370322 1.2345829001 -0.026128325687
          -0.006687591636 1.2340952167 -0.025910417452 -0.0072254842531 1.2338450656 -0.026012680318
          -0.0073962763664 1.2335288284 -0.0257818503 -0.0067388762175 1.2328589564 -0.025385395964
          -0.0061351336445 1.2375132681 -0.026829276441 -0.0059609284644 1.2366544058 -0.026485612442
          -0.0059632486798 1.2363141428 -0.026374281816 -0.0074767714772 1.2354683841 -0.026934248754
          -0.0054563651115 1.2349983762 -0.026007962856 -0.0073992000343 1.2343718636 -0.026094343997
          -0.0053684205179 1.2340907576 -0.026936221846 -0.0068272653617 1.2340334602 -0.026352918097
          -0.0068430045623 1.2334525171 -0.026409359468 -0.0066104135652 1.2333486716 -0.026733529602
          -0.0059916191925 1.2373914984 -0.027309671516 -0.0051078149523 1.2371152831 -0.027304577052
          -0.0057002337346 1.2364460471 -0.026908227962 -0.0059291897975 1.2353725322 -0.026956003412
          -0.0055394109177 1.2342388349 -0.027915274763 -0.0062553491643 1.2339146851 -0.027939485036
          -0.0059175851917 1.2340149294 -0.026893942986 -0.0061258038674 1.2341352251 -0.026894282178
          -0.0067230141547 1.2338535583 -0.027291065733 -0.0059446147582 1.233247817 -0.027222023909
          -0.0017021583671 1.2397454998 -0.031010378808 -0.0046803064259 1.2364212085 -0.028378785977
          -0.0047753282015 1.235395572 -0.028981043876 -0.004118706429 1.2353853759 -0.02772208831
          -0.0030609171961 1.2337026648 -0.026981565317 -0.007895217955 1.2332705863 -0.026961141156
          -0.0068017913091 1.2340236884 -0.027687145761 -0.0062172768771 1.2331235673 -0.028956399481
          -0.0062905138762 1.2331651754 -0.028385332237 -0.0093283080113 1.2357742751 -0.031003369736
          -0.00223459606 1.2421258059 -0.024214806977 -0.0011500821375 1.2364789868 -0.030336301281
          -0.0048409340261 1.2353295146 -0.029573562722 -0.0019752871572 1.2349679218 -0.028140456375
          -0.0041872797872 1.2308847398 -0.030539503052 -0.0058360927784 1.2303190322 -0.030610932125
          -0.0080425238406 1.2336572542 -0.028070396921 -0.0052879820372 1.2330437018 -0.029391575181
          -0.0088976635065 1.2331485015 -0.030402006454 -0.0077647595566 1.2379741364 -0.024129053383
          -0.0098970291269 1.2389188301 -0.023441093831 -0.0080714716394 1.2362791933 -0.022414429019
          -0.0086529276462 1.2367720728 -0.023033155411 -0.0089592217045 1.2357722823 -0.022370881281
          -0.0090752496834 1.2361152745 -0.023093018681 -0.0091546072426 1.2353475525 -0.022974022357
          -0.0093319863681 1.234374806 -0.022349353851 -0.0096800456054 1.2344499759 -0.023038765182
          -0.010296343182 1.2329651458 -0.022431226875 -0.0082478743333 1.2349319563 -0.023355907299
          -0.0082309082441 1.2368573173 -0.022975107909 -0.0081557695944 1.2371838179 -0.023704424474
          -0.0087832868695 1.2369483496 -0.02350522332 -0.0086928469877 1.2359319887 -0.023206937413
          -0.0086497456861 1.2355425655 -0.023322400985 -0.0087325225375 1.2349743741 -0.023251188594
          -0.0087303659391 1.2345237404 -0.023162863265 -0.0085995240401 1.234618713 -0.023449547654
          -0.0092817547275 1.2339637573 -0.023695704723 -0.009258614397 1.2326977538 -0.022884321545
          -0.0081812469795 1.2373235851 -0.023635496423 -0.0077905677337 1.2370895456 -0.024202050979
          -0.0081422623959 1.236703084 -0.02406075784 -0.0082706862572 1.2361996402 -0.024102762675
          -0.0082502008008 1.2357364995 -0.024071280104 -0.0082608524094 1.2353283238 -0.024000914221
          -0.0082232528417 1.2348242131 -0.024090706574 -0.0083627407635 1.2344107805 -0.024033453303
          -0.0086345190819 1.2338903077 -0.024147978649 -0.0083074457685 1.2331494557 -0.023587339044
          -0.0075616040294 1.237267082 -0.024603037415 -0.00809471237 1.2371978713 -0.024512282919
          -0.0077806291645 1.2366695652 -0.02466569847 -0.0078566116928 1.2362123318 -0.02471638199
          -0.0077045988412 1.235764366 -0.024637599232 -0.0077814610173 1.235340895 -0.024715050098
          -0.007757679072 1.2348327637 -0.024692432732 -0.0078131259223 1.2344002506 -0.024640611867
          -0.0075557216802 1.2339697716 -0.024507235946 -0.0080395302348 1.2331669413 -0.024511390827
          -0.0067166481177 1.2373764439 -0.025781748786 -0.0071700438605 1.2370693086 -0.02538223706
          -0.0075300404321 1.2366038666 -0.025193620755 -0.0074284080736 1.236232195 -0.02524819309
          -0.0073178599646 1.2357984374 -0.025309774773 -0.0073374445324 1.2353280967 -0.025277981061
          -0.0072119890747 1.2349263756 -0.025244960849 -0.0071143090338 1.2343531154 -0.025164271902
          -0.0074763108458 1.2338676887 -0.025341360466 -0.0079130416632 1.2332533762 -0.025632938868
          -0.0061513160599 1.2376721636 -0.026492814348 -0.0065995851819 1.2372412525 -0.025952944256
          -0.0066250673797 1.2367910939 -0.025969294674 -0.0065462528755 1.2363588637 -0.025876953524
          -0.0067894953701 1.2357521688 -0.025967900563 -0.0068624143113 1.2352834329 -0.026008074905
          -0.00715398924 1.2349075171 -0.025833349312 -0.0071479932991 1.2345069984 -0.025924785343
          -0.0071048334291 1.2340418621 -0.025865883018 -0.0076076460792 1.2335102529 -0.026408576524
          -0.0064121554482 1.2377784146 -0.026323743865 -0.0057170685466 1.237413882 -0.026732145859
          -0.0064284416869 1.2367695653 -0.026515740557 -0.0064591141642 1.2363723389 -0.026357330603
          -0.0062416851322 1.2356616604 -0.02666247564 -0.0065793607969 1.2352041179 -0.026673901938
          -0.0063766620177 1.2349964782 -0.026380655056 -0.0063824396891 1.2345054053 -0.026499984644
          -0.0071346331681 1.2342345453 -0.026707534383 -0.0064120039039 1.2336642439 -0.026249744942
          -0.0056859942186 1.2373497789 -0.027850139526 -0.0059525322371 1.2369860791 -0.02748545291
          -0.0055903977332 1.2367553876 -0.027199018913 -0.0048583788466 1.2364448123 -0.026749110242
          -0.0051274644268 1.2355274506 -0.027012731308 -0.0067553373612 1.2350518892 -0.027022545117
          -0.0070012012135 1.2350589582 -0.026766284286 -0.0063586790353 1.2344803008 -0.027158885996
          -0.0059897599445 1.2338389806 -0.027441727339 -0.0062464391565 1.2331915868 -0.027832546557
          -0.0054173075275 1.2382135501 -0.028159890349 -0.0055109502189 1.236591961 -0.028476653292
          -0.0039741487053 1.2365636789 -0.028393544184 -0.0049109745863 1.2360408125 -0.028222707061
          -0.0044747988884 1.2359245701 -0.027239283054 -0.0064111739431 1.2356325197 -0.02721280522
          -0.0060444858811 1.2347042957 -0.028176866087 -0.00698882903 1.2342463791 -0.028373093282
          -0.0054785492006 1.2333848125 -0.028399612057 -0.0055661593981 1.2340713171 -0.02809405761
          -0.00028777216725 1.2420901116 -0.028056600776 -0.0042437448562 1.2365996312 -0.028216212464
          -0.0029874157785 1.2383883303 -0.026943316997 -0.0061933640136 1.2367694443 -0.027073323041
          -0.0025711294041 1.235466037 -0.027852512737 -0.007681348311 1.2349195865 -0.027813668766
          -0.0038754966165 1.2354001674 -0.027045243017 -0.0070766056288 1.2360450606 -0.026950171075
          -0.0059175779025 1.2334382454 -0.02821107615 -0.0095709335742 1.237897545 -0.028024436406
          -0.0094394565911 1.2388942452 -0.023284176966 -0.0077610413032 1.2367578576 -0.022426340357
          -0.009359054855 1.2372592995 -0.022265193259 -0.0092065504145 1.237130564 -0.022862478031
          -0.0091221825064 1.2364317553 -0.022769652069 -0.0092280100334 1.2359448689 -0.02274320055
          -0.009131238849 1.235731062 -0.022868929197 -0.008967448509 1.2349422166 -0.022190734261
          -0.010695222703 1.2334860444 -0.022363686697 -0.0087967561194 1.2348290885 -0.023215684497
          -0.0072102598073 1.2371507109 -0.022997507774 -0.0084639863566 1.2378674373 -0.023546309968
          -0.0084614283167 1.2371508844 -0.023346395591 -0.0086758080425 1.2369034757 -0.023407370911
          -0.0086745849295 1.2364405928 -0.02336910559 -0.0087547180458 1.2359064596 -0.023361558026
          -0.0087524585862 1.2355472228 -0.023416820489 -0.0089605390225 1.2348397916 -0.023326802761
          -0.0089477860274 1.2346275136 -0.023509884035 -0.010301982151 1.2329095907 -0.022888716091
          -0.0075407864645 1.2376761445 -0.024130349072 -0.0080846824921 1.237741052 -0.024035549589
          -0.0081738340175 1.2373799717 -0.02405689928 -0.0082718254305 1.2369405913 -0.024042241064
          -0.0082396606866 1.2364565002 -0.024051468806 -0.0082209741561 1.2359957931 -0.024058885283
          -0.0082355097342 1.2355594089 -0.024039489524 -0.0083001058796 1.2350905771 -0.024045620582
          -0.0084112232238 1.234559598 -0.023992417951 -0.0090281831008 1.233538634 -0.024054282198
          -0.0078072093555 1.2380688485 -0.024328797192 -0.0078217534913 1.2379207013 -0.024610846785
          -0.0077594174772 1.2373884836 -0.024654620855 -0.0077995564495 1.2369188524 -0.024725525202
          -0.0077673706106 1.2364464008 -0.024676384542 -0.0077488646621 1.236013616 -0.024683383886
          -0.0077876458577 1.2355593323 -0.024639459471 -0.0078126658217 1.235116211 -0.024622134685
          -0.0078075198163 1.2347086102 -0.024562106805 -0.0079110316732 1.233902504 -0.024304088578
          -0.0071587823363 1.2385861701 -0.025476275326 -0.0072484465866 1.2378522663 -0.025237123912
          -0.0071934792676 1.2374759737 -0.025241174928 -0.0073223946116 1.2369993358 -0.025176496415
          -0.0073622283692 1.2364410512 -0.025346477846 -0.0072647063742 1.235949638 -0.025297282923
          -0.007410153696 1.2355884325 -0.025139964606 -0.007463005243 1.2352043744 -0.025229403378
          -0.0074454834859 1.2346329748 -0.025180135178 -0.0075518889187 1.2344430377 -0.025381419831