<?xml version="1.0"?>
<VTKFile type="UnstructuredGrid" version="0.1" byte_order="LittleEndian" compressor="vtkZLibDataCompressor">
  <UnstructuredGrid>
    <FieldData>
      <DataArray type="Float64" Name="TIME" NumberOfTuples="1" format="ascii" RangeMin="0.31233408984" RangeMax="0.31233408984">
        0.31233408984
      </DataArray>
    </FieldData>
    <Piece NumberOfPoints="1000" NumberOfCells="0">
      <PointData>
        <DataArray type="Float64" Name="Damage" format="ascii" RangeMin="0" RangeMax="0.49719101124">
          0 0 0 0 0 0
          0 0 0 0 0 0.027932960894
          0 0 0 0 0 0
          0.027932960894 0 0 0.055084745763 0.071428571429 0.040345821326
          0.014164305949 0.012987012987 0.040345821326 0.071428571429 0.055084745763 0
          0 0.067669172932 0.11239193084 0.1074168798 0.037688442211 0.034562211982
          0.1074168798 0.11239193084 0.067669172932 0 0 0.074349442379
          0.16147308782 0.16834170854 0.12376237624 0.11286681716 0.16834170854 0.16147308782
          0.074349442379 0 0 0.084459459459 0.2 0.25806451613
          0.33860045147 0.39211618257 0.25806451613 0.2 0.084459459459 0
          0 0.093984962406 0.25360230548 0.36061381074 0.41959798995 0.46774193548
          0.36061381074 0.25360230548 0.093984962406 0 0 0.10593220339
          0.31493506494 0.40057636888 0.4447592068 0.49090909091 0.40057636888 0.31493506494
          0.10593220339 0 0 0.16759776536 0.3686440678 0.43984962406
          0.44609665428 0.49662162162 0.43984962406 0.3686440678 0.16759776536 0
          0 0.1677852349 0.36734693878 0.43891402715 0.44642857143 0.49593495935
          0.43891402715 0.36734693878 0.1677852349 0 0 0
          0 0 0 0 0 0
          0 0 0 0.027906976744 0 0
          0 0 0 0 0.027906976744 0
          0 0.056338028169 0.072776280323 0.040669856459 0.014117647059 0.012931034483
          0.040669856459 0.072776280323 0.056338028169 0 0 0.06875
          0.11483253589 0.10828025478 0.0375782881 0.034416826004 0.10828025478 0.11483253589
          0.06875 0 0 0.074303405573 0.16235294118 0.16910229645
          0.12371134021 0.11257035647 0.16910229645 0.16235294118 0.074303405573 0
          0 0.084269662921 0.20043103448 0.25812619503 0.33771106942 0.39242685026
          0.25812619503 0.20043103448 0.084269662921 0 0 0.09375
          0.25358851675 0.36093418259 0.41962421712 0.46845124283 0.36093418259 0.25358851675
          0.09375 0 0 0.10563380282 0.3153638814 0.4019138756
          0.44470588235 0.49137931034 0.4019138756 0.3153638814 0.10563380282 0
          0 0.16744186047 0.36971830986 0.440625 0.44582043344 0.49719101124
          0.440625 0.36971830986 0.16744186047 0 0 0.16759776536
          0.3686440678 0.43984962406 0.44609665428 0.49662162162 0.43984962406 0.3686440678
          0.16759776536 0 0 0 0 0
          0 0 0 0 0 0
          0 0.024647887324 0 0 0 0
          0 0 0.024647887324 0 0 0.051212938005
          0.06875 0.038817005545 0.012635379061 0.011666666667 0.038817005545 0.06875
          0.051212938005 0 0 0.064593301435 0.10905730129 0.10491803279
          0.036858974359 0.034023668639 0.10491803279 0.10905730129 0.064593301435 0
          0 0.070588235294 0.15523465704 0.16506410256 0.12283464567 0.11271676301
          0.16506410256 0.15523465704 0.070588235294 0 0 0.081896551724
          0.19333333333 0.25443786982 0.33959537572 0.38985313752 0.25443786982 0.19333333333
          0.081896551724 0 0 0.093301435407 0.24768946396 0.35573770492
          0.41987179487 0.46449704142 0.35573770492 0.24768946396 0.093301435407 0
          0 0.10781671159 0.30833333333 0.39556377079 0.4440433213 0.48666666667
          0.39556377079 0.30833333333 0.10781671159 0 0 0.16197183099
          0.35579514825 0.43062200957 0.44470588235 0.49137931034 0.43062200957 0.35579514825
          0.16197183099 0 0 0.16101694915 0.3538961039 0.42939481268
          0.4447592068 0.49090909091 0.42939481268 0.3538961039 0.16101694915 0
          0 0 0 0 0 0
          0 0 0 0 0 0.025
          0 0 0 0 0 0
          0.025 0 0 0.05023923445 0.068391866913 0.039344262295
          0.012820512821 0.011834319527 0.039344262295 0.068391866913 0.05023923445 0
          0 0.063694267516 0.10819672131 0.10465116279 0.036984352774 0.034120734908
          0.10465116279 0.10819672131 0.063694267516 0 0 0.070981210856
          0.15544871795 0.16500711238 0.12290502793 0.11282051282 0.16500711238 0.15544871795
          0.070981210856 0 0 0.082217973231 0.19378698225 0.25459317585
          0.33974358974 0.38981042654 0.25459317585 0.19378698225 0.082217973231 0
          0 0.093418259023 0.24918032787 0.35610465116 0.41963015647 0.46456692913
          0.35610465116 0.24918032787 0.093418259023 0 0 0.10765550239
          0.30868761553 0.39508196721 0.44391025641 0.48668639053 0.39508196721 0.30868761553
          0.10765550239 0 0 0.1625 0.35645933014 0.43099787686
          0.44467640919 0.4913957935 0.43099787686 0.35645933014 0.1625 0
          0 0.16165413534 0.35446685879 0.42966751918 0.44472361809 0.49078341014
          0.42966751918 0.35446685879 0.16165413534 0 0 0
          0 0 0 0 0 0
          0 0 0 0.02786377709 0 0
          0 0 0 0 0.02786377709 0
          0 0.054117647059 0.070397111913 0.040064102564 0.014173228346 0.013005780347
          0.040064102564 0.070397111913 0.054117647059 0 0 0.066805845511
          0.11057692308 0.106685633 0.037709497207 0.034615384615 0.106685633 0.11057692308
          0.066805845511 0 0 0.074226804124 0.16062992126 0.16759776536
          0.12362637363 0.11292346299 0.16759776536 0.16062992126 0.074226804124 0
          0 0.084427767355 0.19942196532 0.25769230769 0.33877038896 0.39145496536
          0.25769230769 0.19942196532 0.084427767355 0 0 0.093945720251
          0.25320512821 0.35988620199 0.41899441341 0.46666666667 0.35988620199 0.25320512821
          0.093945720251 0 0 0.10588235294 0.31407942238 0.39903846154
          0.44409448819 0.48988439306 0.39903846154 0.31407942238 0.10588235294 0
          0 0.16718266254 0.36705882353 0.43841336117 0.44536082474 0.49530956848
          0.43841336117 0.36705882353 0.16718266254 0 0 0.16728624535
          0.36543909348 0.43718592965 0.44554455446 0.49435665914 0.43718592965 0.36543909348
          0.16728624535 0 0 0 0 0
          0 0 0 0 0 0
          0 0.025280898876 0 0 0 0
          0 0 0.025280898876 0 0 0.049568965517
          0.066666666667 0.038461538462 0.013005780347 0.012016021362 0.038461538462 0.066666666667
          0.049568965517 0 0 0.06309751434 0.1050295858 0.10367454068
          0.037179487179 0.034360189573 0.10367454068 0.1050295858 0.06309751434 0
          0 0.071294559099 0.15462427746 0.1641025641 0.12296110414 0.11316397229
          0.1641025641 0.15462427746 0.071294559099 0 0 0.082616179002
          0.19359145527 0.25473933649 0.34064665127 0.38930481283 0.25473933649 0.19359145527
          0.082616179002 0 0 0.093690248566 0.24852071006 0.35564304462
          0.41923076923 0.46327014218 0.35564304462 0.24852071006 0.093690248566 0
          0 0.10775862069 0.30833333333 0.39349112426 0.4436416185 0.48598130841
          0.39349112426 0.30833333333 0.10775862069 0 0 0.16292134831
          0.35560344828 0.43021032505 0.44465290807 0.49053356282 0.43021032505 0.35560344828
          0.16292134831 0 0 0.16216216216 0.35324675325 0.42857142857
          0.44469525959 0.48962655602 0.42857142857 0.35324675325 0.16216216216 0
          0 0 0 0 0 0
          0 0 0 0 0 0.025
          0 0 0 0 0 0
          0.025 0 0 0.05023923445 0.068391866913 0.039344262295
          0.012820512821 0.011834319527 0.039344262295 0.068391866913 0.05023923445 0
          0 0.063694267516 0.10819672131 0.10465116279 0.036984352774 0.034120734908
          0.10465116279 0.10819672131 0.063694267516 0 0 0.070981210856
          0.15544871795 0.16500711238 0.12290502793 0.11282051282 0.16500711238 0.15544871795
          0.070981210856 0 0 0.082217973231 0.19378698225 0.25459317585
          0.33974358974 0.38981042654 0.25459317585 0.19378698225 0.082217973231 0
          0 0.093418259023 0.24918032787 0.35610465116 0.41963015647 0.46456692913
          0.35610465116 0.24918032787 0.093418259023 0 0 0.10765550239
          0.30868761553 0.39508196721 0.44391025641 0.48668639053 0.39508196721 0.30868761553
          0.10765550239 0 0 0.1625 0.35645933014 0.43099787686
          0.44467640919 0.4913957935 0.43099787686 0.35645933014 0.1625 0
          0 0.16165413534 0.35446685879 0.42966751918 0.44472361809 0.49078341014
          0.42966751918 0.35446685879 0.16165413534 0 0 0
          0 0 0 0 0 0
          0 0 0 0.024647887324 0 0
          0 0 0 0 0.024647887324 0
          0 0.051212938005 0.06875 0.038817005545 0.012635379061 0.011666666667
          0.038817005545 0.06875 0.051212938005 0 0 0.064593301435
          0.10905730129 0.10491803279 0.036858974359 0.034023668639 0.10491803279 0.10905730129
          0.064593301435 0 0 0.070588235294 0.15523465704 0.16506410256
          0.12283464567 0.11271676301 0.16506410256 0.15523465704 0.070588235294 0
          0 0.081896551724 0.19333333333 0.25443786982 0.33959537572 0.38985313752
          0.25443786982 0.19333333333 0.081896551724 0 0 0.093301435407
          0.24768946396 0.35573770492 0.41987179487 0.46449704142 0.35573770492 0.24768946396
          0.093301435407 0 0 0.10781671159 0.30833333333 0.39556377079
          0.4440433213 0.48666666667 0.39556377079 0.30833333333 0.10781671159 0
          0 0.16197183099 0.35579514825 0.43062200957 0.44470588235 0.49137931034
          0.43062200957 0.35579514825 0.16197183099 0 0 0.16101694915
          0.3538961039 0.42939481268 0.4447592068 0.49090909091 0.42939481268 0.3538961039
          0.16101694915 0 0 0 0 0
          0 0 0 0 0 0
          0 0.027906976744 0 0 0 0
          0 0 0.027906976744 0 0 0.056338028169
          0.072776280323 0.040669856459 0.014117647059 0.012931034483 0.040669856459 0.072776280323
          0.056338028169 0 0 0.06875 0.11483253589 0.10828025478
          0.0375782881 0.034416826004 0.10828025478 0.11483253589 0.06875 0
          0 0.074303405573 0.16235294118 0.16910229645 0.12371134021 0.11257035647
          0.16910229645 0.16235294118 0.074303405573 0 0 0.084269662921
          0.20043103448 0.25812619503 0.33771106942 0.39242685026 0.25812619503 0.20043103448
          0.084269662921 0 0 0.09375 0.25358851675 0.36093418259
          0.41962421712 0.46845124283 0.36093418259 0.25358851675 0.09375 0
          0 0.10563380282 0.3153638814 0.4019138756 0.44470588235 0.49137931034
          0.4019138756 0.3153638814 0.10563380282 0 0 0.16744186047
          0.36971830986 0.440625 0.44582043344 0.49719101124 0.440625 0.36971830986
          0.16744186047 0 0 0.16759776536 0.3686440678 0.43984962406
          0.44609665428 0.49662162162 0.43984962406 0.3686440678 0.16759776536 0
          0 0 0 0 0 0
          0 0 0 0 0 0.027932960894
          0 0 0 0 0 0
          0.027932960894 0 0 0.055084745763 0.071428571429 0.040345821326
          0.014164305949 0.012987012987 0.040345821326 0.071428571429 0.055084745763 0
          0 0.067669172932 0.11239193084 0.1074168798 0.037688442211 0.034562211982
          0.1074168798 0.11239193084 0.067669172932 0 0 0.074349442379
          0.16147308782 0.16834170854 0.12376237624 0.11286681716 0.16834170854 0.16147308782
          0.074349442379 0 0 0.084459459459 0.2 0.25806451613
          0.33860045147 0.39211618257 0.25806451613 0.2 0.084459459459 0
          0 0.093984962406 0.25360230548 0.36061381074 0.41959798995 0.46774193548
          0.36061381074 0.25360230548 0.093984962406 0 0 0.10593220339
          0.31493506494 0.40057636888 0.4447592068 0.49090909091 0.40057636888 0.31493506494
          0.10593220339 0 0 0.16759776536 0.3686440678 0.43984962406
          0.44609665428 0.49662162162 0.43984962406 0.3686440678 0.16759776536 0
          0 0.1677852349 0.36734693878 0.43891402715 0.44642857143 0.49593495935
          0.43891402715 0.36734693878 0.1677852349 0
        </DataArray>
        <DataArray type="Float64" Name="Displacement" NumberOfComponents="3" format="ascii" RangeMin="1.0024377867" RangeMax="1.0231121688">
          -0.013274133187 1.0153895748 -0.02917952745 -0.011936934758 1.0092892767 -0.02660738107
          -0.011382210689 1.0096415835 -0.028865044077 -0.011782383859 1.0103962573 -0.029610825518
          -0.011622018971 1.0089160631 -0.02854230699 -0.011518848165 1.008062503 -0.028580424729
          -0.011354636847 1.0086301423 -0.029386734519 -0.011826749977 1.0067359606 -0.028703280603
          -0.011139469854 1.0053287782 -0.0266430449 -0.009872397425 1.0104652553 -0.028931775181
          -0.010415486359 1.0120537281 -0.029981411346 -0.0088892078194 1.0094248649 -0.030603517271
          -0.010978522292 1.0088810371 -0.028860266524 -0.011524245586 1.0093622152 -0.029371347827
          -0.010687310678 1.0087668057 -0.02957186981 -0.0108894975 1.0079611022 -0.029553518733
          -0.010521134222 1.0076497143 -0.029386129953 -0.011037131993 1.0057696283 -0.028630715427
          -0.013221325982 1.0053515915 -0.030589819003 -0.011831224193 1.0070199112 -0.029971337662
          -0.0091286209751 1.0104342565 -0.031362739835 -0.0081826612123 1.0107668991 -0.03198947441
          -0.01133468867 1.0107020621 -0.030522545961 -0.010406237956 1.0088731859 -0.030202470153
          -0.010554608166 1.0081770471 -0.02986886534 -0.010527396532 1.0089718588 -0.03082164787
          -0.010610111946 1.0070563716 -0.03004641546 -0.0095495521525 1.0078705254 -0.030461946655
          -0.012654444416 1.0067771515 -0.031964615334 -0.011469033157 1.0053830078 -0.031050015833
          -0.010640891933 1.0117420765 -0.031048207459 -0.0097290379564 1.0117302306 -0.031523608449
          -0.010345325088 1.0101637377 -0.030969267691 -0.010040255532 1.0092446011 -0.031220192498
          -0.0096010489334 1.0089630932 -0.03110405336 -0.010086317747 1.0080937856 -0.031365720808
          -0.0099997363156 1.0077193693 -0.031516986365 -0.0094735834885 1.0071487181 -0.030843321487
          -0.010003819313 1.0076964358 -0.031399624019 -0.0090029381221 1.0065947764 -0.03088907064
          -0.010421912516 1.0118656823 -0.031275936027 -0.0090416730597 1.0103609541 -0.032439448408
          -0.0089442875317 1.0105104685 -0.03226871088 -0.0099460434659 1.008940716 -0.032150204564
          -0.0096510221275 1.0086013965 -0.03188812399 -0.0092011133332 1.0080405979 -0.031913161781
          -0.0085548348687 1.0072215807 -0.032090189194 -0.0096208158216 1.0075074924 -0.032292683026
          -0.0095445734858 1.0064229312 -0.032346549637 -0.0082026598984 1.0067590765 -0.031196450743
          -0.0090667178273 1.0122458894 -0.033032863867 -0.0074048367836 1.0105686293 -0.033170890627
          -0.0079438302973 1.0104858561 -0.033404315601 -0.0080173525904 1.0096343959 -0.032829985914
          -0.0087878523351 1.0091432231 -0.032204259662 -0.0086260311648 1.0085343672 -0.03222009573
          -0.0092822373799 1.008082385 -0.032851530941 -0.009528244401 1.0075084556 -0.033486928334
          -0.010113390904 1.0065629153 -0.033020333794 -0.008356162365 1.0071436608 -0.032942762262
          -0.0083535002662 1.0107465362 -0.033948714117 -0.0077211187083 1.0106174463 -0.033158643639
          -0.0072842115625 1.0109856043 -0.033581247421 -0.0078437494779 1.0091246772 -0.034254215209
          -0.00545733552 1.0078007407 -0.033974029865 -0.010808134195 1.0072024453 -0.034054970223
          -0.0084792298584 1.0074255533 -0.034278384254 -0.0090930702466 1.0081360859 -0.033485922141
          -0.0085689187206 1.0065322404 -0.033091148157 -0.0080499715917 1.005620785 -0.033946057015
          -0.0086577653128 1.0115081232 -0.034000218293 -0.010806288597 1.0107504028 -0.032716501556
          -0.0086815702214 1.009749065 -0.034741435005 -0.0059954108713 1.0101259486 -0.033853426238
          -0.0063509892415 1.0089357532 -0.034056335631 -0.0088302178098 1.0083472338 -0.034024924796
          -0.0092463413006 1.0083786328 -0.033783934462 -0.0064361826406 1.0068079421 -0.034665620476
          -0.0044896966281 1.006677757 -0.032692603735 -0.00653659269 1.0064074432 -0.033878245086
          -0.0071217217557 1.0106768283 -0.037996107632 -0.00015286049047 1.0140273385 -0.037776047204
          -0.0055626210699 1.011271288 -0.034731704169 -0.004487504363 1.0119427149 -0.034113049486
          -0.0048084265702 1.0052474093 -0.034329515558 -0.0094850698481 1.0050379961 -0.034528306514
          -0.0096213357312 1.0102687729 -0.034071642548 -0.0085718942272 1.008493222 -0.034663594442
          -0.013863479693 1.0101090064 -0.037758978628 -0.0070631230285 1.0057056803 -0.037973791229
          -0.0067469705124 1.0087817633 -0.038413948302 -0.0059624097567 1.0058595131 -0.038541437934
          -0.0059866786605 1.0099888849 -0.034307764446 -0.005700851608 1.0144964282 -0.030421213097
          -0.013427369299 1.0104565713 -0.039955714442 0.00061471366676 1.0100919152 -0.039635215125
          -0.0071001713234 1.0129222311 -0.030239820262 -0.006997144373 1.0071976603 -0.034122196347
          -0.006948477812 1.0016713684 -0.038570774233 -0.0064183341247 1.0039008719 -0.038250243872
          -0.01308406236 1.0147074135 -0.028202253494 -0.011841144733 1.0112626404 -0.028649768542
          -0.011536856414 1.0103492124 -0.028249185352 -0.011980155605 1.0100109267 -0.028123500777
          -0.011599409019 1.0092214234 -0.028382742767 -0.011630891248 1.0087873686 -0.028140720665
          -0.011394794942 1.0083223838 -0.028146480144 -0.01165562882 1.0074375264 -0.028047615782
          -0.011284728217 1.0072244474 -0.028472043888 -0.01011887703 1.009604733 -0.027979214349
          -0.011184528529 1.0147239331 -0.032050082538 -0.011617608019 1.0117568763 -0.030346477463
          -0.010675351235 1.0105659296 -0.029710742592 -0.01105903673 1.0103223863 -0.029425707483
          -0.011080010792 1.0090649821 -0.028834025983 -0.011123263947 1.0087401294 -0.029226735978
          -0.010962149851 1.0084512474 -0.029153017202 -0.011406384916 1.0076459654 -0.029700002541
          -0.010380083731 1.0077639399 -0.030331480388 -0.010889052453 1.0095520075 -0.032104590669
          -0.011444573225 1.0122104324 -0.030361605455 -0.010500993874 1.0115526401 -0.030615059025
          -0.010082112236 1.0113850588 -0.031428781669 -0.010437922819 1.0103021935 -0.030650668147
          -0.01047990077 1.0097117049 -0.030609370885 -0.010466825152 1.0091744281 -0.030634742285
          -0.010454237028 1.0086826888 -0.03065937775 -0.010823120556 1.0084815227 -0.031298003722
          -0.010433901653 1.0074462364 -0.030522465446 -0.0094596291252 1.0071059716 -0.030245433106
          -0.009606543639 1.0117862191 -0.032020357561 -0.0099017710638 1.0117953615 -0.031472988307
          -0.0099826931535 1.0109340182 -0.031251018859 -0.0095770886696 1.0107278665 -0.032040855066
          -0.009873629328 1.0096568013 -0.03132466881 -0.0098772188196 1.009103166 -0.031300574278
          -0.010146100386 1.009093873 -0.032045858761 -0.0097505714884 1.0081681659 -0.03126872881
          -0.0098485401736 1.0077390218 -0.031391445703 -0.01022084805 1.0065314715 -0.031867673511
          -0.0091556911359 1.0125897958 -0.032597024392 -0.0093111223964 1.0119253536 -0.032517822392
          -0.0090782458549 1.0111763868 -0.032296141765 -0.0095724518338 1.0102117988 -0.03214954617
          -0.0091769256177 1.0099494234 -0.03207412201 -0.0094047843575 1.0094140891 -0.0321640494
          -0.009138300117 1.0086193914 -0.032000533338 -0.0095481286156 1.0082718057 -0.032256881258
          -0.0094071124198 1.0078845018 -0.032330905008 -0.0094763887727 1.007375379 -0.032540759063
          -0.0090779131709 1.013234189 -0.032346047903 -0.0079889878049 1.011860571 -0.033213303715
          -0.0086836786706 1.0110241512 -0.033089634862 -0.0081509278762 1.0105254464 -0.032996391547
          -0.0082323570056 1.0097906373 -0.032671879203 -0.0091881625752 1.0093188157 -0.032617048965
          -0.0091587105927 1.008792351 -0.032959086394 -0.0087836039016 1.0081621903 -0.03307566221
          -0.0094696399118 1.0078240735 -0.033143494707 -0.0084084166434 1.0080118933 -0.032266880893
          -0.0077786566766 1.011827483 -0.034344180885 -0.0076869782218 1.0117840827 -0.033892496634
          -0.007551813618 1.0112357677 -0.033934171533 -0.0079600653379 1.0104050499 -0.033702224851
          -0.0076885168013 1.0096719486 -0.033560244598 -0.0084989597254 1.0092639578 -0.033393290541
          -0.0083094337916 1.0087009375 -0.033626726002 -0.0087714270671 1.0083834386 -0.033902245876
          -0.0086323026545 1.0077718525 -0.033794314047 -0.0086010915619 1.0066379719 -0.034217365495
          -0.0058395539332 1.0130926875 -0.036499019455 -0.0067827237709 1.0117044187 -0.035029202842
          -0.006643507527 1.0112807025 -0.034314092962 -0.0074339795819 1.0104792374 -0.034880173518
          -0.0068491950831 1.0094146067 -0.034621115986 -0.0084214475037 1.0087610473 -0.034725515241
          -0.0078643021423 1.0087822202 -0.03491178379 -0.0084747206921 1.0084226006 -0.034255020976
          -0.0084656542163 1.0077012416 -0.035003255678 -0.0094110920555 1.007973854 -0.036429949193
          -0.0053527695273 1.0143328475 -0.034897114648 -0.0072974693843 1.0103847223 -0.036176971563
          -0.006101896232 1.0113004432 -0.035043523556 -0.005678519498 1.0106100121 -0.034582113951
          -0.0077471534117 1.0097988772 -0.036080192476 -0.0063555337556 1.009272053 -0.035990745863
          -0.0084138748239 1.0089211619 -0.034520739093 -0.0079629342615 1.0084906714 -0.034977042364
          -0.00681056167 1.0064248751 -0.036096086245 -0.0086235026826 1.0090354001 -0.03482889261
          -0.003835652298 1.0139194338 -0.034484101414 -0.0034242347347 1.0108720999 -0.037471144123
          -0.0061628760533 1.0082683782 -0.038822559872 -0.0039153996197 1.0086591796 -0.035746711585
          -0.003895333511 1.0102851938 -0.034859650595 -0.0089945914364 1.009928584 -0.034748081287
          -0.0090761773681 1.0068236162 -0.036032450321 -0.0067144389105 1.0053906855 -0.038935281094
          -0.0092929765106 1.0069748534 -0.037366060891 -0.009175252839 1.0090066716 -0.034458588353
          -0.012847328022 1.0146584542 -0.029476239042 -0.0114300626 1.0120710643 -0.02882386155
          -0.011494678212 1.0114405513 -0.028611262493 -0.011266470911 1.0107008469 -0.028446429578
          -0.011717148336 1.0111402782 -0.029569597464 -0.011695259624 1.0106894676 -0.02943337975
          -0.011899701995 1.0090642786 -0.02837656672 -0.011761768398 1.0085754792 -0.028574243659
          -0.011873046016 1.0080205994 -0.028765654189 -0.010347717806 1.0093765396 -0.029369055044
          -0.010002377305 1.0113633013 -0.02964819708 -0.010927927793 1.0123570047 -0.029962280353
          -0.010974501932 1.0113135581 -0.029506954471 -0.011258345885 1.0112899536 -0.029629460996
          -0.011124733598 1.0107189031 -0.029754210374 -0.010970517193 1.0100871957 -0.029688410778
          -0.010804562228 1.0096558583 -0.029664258094 -0.011072882182 1.0083817514 -0.029427785962
          -0.011081390297 1.0082931294 -0.029841326688 -0.012132588751 1.0060846469 -0.029580455996
          -0.010147379634 1.0132873311 -0.031110776365 -0.0098725004427 1.0122573276 -0.031007732707
          -0.010365693945 1.0119249924 -0.03087511006 -0.010544815608 1.0113429748 -0.030740185949
          -0.01046256656 1.010476638 -0.030487369609 -0.010404792882 1.0098485313 -0.03057014552
          -0.010405017296 1.0096236189 -0.030691350624 -0.01050396942 1.0090516141 -0.030781241506
          -0.011039704824 1.0082331724 -0.030925301251 -0.010810705239 1.0080755349 -0.030940502165
          -0.0099201881559 1.0133174507 -0.031280634524 -0.0097193903554 1.0126492147 -0.031734593527
          -0.0098321220612 1.0118727375 -0.031484445277 -0.0098886333609 1.0112040614 -0.031476504437
          -0.0098358320925 1.0105204508 -0.031363300006 -0.0098199736863 1.0098380159 -0.031383712531
          -0.0098468146861 1.0094715207 -0.031455050736 -0.0098958315923 1.0089771956 -0.031421787891
          -0.0099960156902 1.0086421614 -0.031608002911 -0.009819013643 1.0082270318 -0.031209091012
          -0.0095161403593 1.0131700465 -0.031912116006 -0.009275964645 1.0125184578 -0.032345021262
          -0.009183837981 1.0118314732 -0.032231207383 -0.0093101717491 1.0112280592 -0.032199498587
          -0.0093106290054 1.0104149856 -0.032153174795 -0.0092661843727 1.0098779256 -0.032145930565
          -0.0092588908654 1.0094770341 -0.032143632179 -0.0094014717354 1.0089348248 -0.03214066324
          -0.0093660170778 1.0084961714 -0.032268954169 -0.0091428837532 1.008044773 -0.031802037742
          -0.0087566526399 1.0135084942 -0.032771765837 -0.0087158137279 1.0125316556 -0.032967011361
          -0.0085297488396 1.011799552 -0.033016911989 -0.0088710199271 1.0111710097 -0.033062156441
          -0.0088556878034 1.0104634455 -0.033016133241 -0.008782212763 1.0099084209 -0.032906186106
          -0.0086025939907 1.0093479034 -0.032982371895 -0.0089986036732 1.0089640729 -0.032964754068
          -0.0088467001067 1.0085339984 -0.032903945836 -0.008700817571 1.0083379675 -0.03264496939
          -0.0078339287982 1.0133640141 -0.033603923747 -0.0080398967601 1.0124602106 -0.033786975888
          -0.0075178946058 1.0118807921 -0.033826924945 -0.0083106598625 1.0110719276 -0.033913096057
          -0.0084283757922 1.0105830282 -0.033968939772 -0.0078949877324 1.0099610127 -0.033910176418
          -0.0080444807114 1.0093565239 -0.03385006763 -0.0088392268161 1.0090359975 -0.033748096924
          -0.0083405077528 1.0084515871 -0.033746667214 -0.0085797941846 1.0082173548 -0.033516561635
          -0.00658604326 1.0139701815 -0.034505710135 -0.006752511407 1.0126980683 -0.03461470465
          -0.006465488753 1.0118064241 -0.034514163306 -0.0073444352863 1.0115382525 -0.034209271163
          -0.0070925327262 1.0099132856 -0.034763150258 -0.0081183510783 1.0094902099 -0.034614820394
          -0.0078535335803 1.0097656889 -0.034219009925 -0.0086900043986 1.0089482196 -0.03449603169
          -0.0083828161544 1.0087175661 -0.034604517929 -0.0085812299844 1.0088049498 -0.034399351513
          -0.0077007586231 1.0116546085 -0.035865473881 -0.0061642302885 1.0127931158 -0.035436428986
          -0.0064903837117 1.0116787851 -0.035308879065 -0.0060138627575 1.0110462616 -0.035230184755
          -0.0047045718923 1.0102144566 -0.034120297776 -0.0094459628598 1.0097118314 -0.034118918894
          -0.0080513447971 1.0093571149 -0.035209741977 -0.007563642347 1.0088776828 -0.035214955751
          -0.0078902755762 1.0087966527 -0.03535056702 -0.0063290674034 1.0063529952 -0.035738783565
          -0.0088655672853 1.0089065057 -0.037693433124 -0.0050893473915 1.0126027624 -0.03623342564
          -0.0062126805298 1.012271721 -0.035148738093 -0.0037053722317 1.0109993293 -0.035865620788
          -0.0094015487146 1.0127191225 -0.035807508309 -0.003551999959 1.012094485 -0.035756673678
          -0.0090984944969 1.0093842201 -0.035862916109 -0.006745134228 1.0093239747 -0.035149101087
          -0.007754024671 1.0085615106 -0.036193483229 -0.0042404748701 1.0038312335 -0.037501935724
          -0.013133561611 1.015547298 -0.029735020328 -0.012679663767 1.0139851151 -0.028498449824
          -0.012155220861 1.0127911773 -0.028513309046 -0.011659092183 1.0119863528 -0.028558534289
          -0.011653158633 1.0118046099 -0.029004810782 -0.011478347105 1.011037247 -0.028872483085
          -0.011577759255 1.0103034793 -0.02865625139 -0.011095784038 1.0098809829 -0.02853325231
          -0.010562293253 1.0099150332 -0.028358655579 -0.010131218808 1.0102997843 -0.02961893155
          -0.011943828083 1.0147489444 -0.029548408554 -0.011322915375 1.0138653274 -0.030024582796
          -0.011349624816 1.0128709112 -0.029765750633 -0.011143533304 1.0120223907 -0.029668524561
          -0.011124241638 1.0113995784 -0.029713284982 -0.011006955173 1.0108655114 -0.029695159902
          -0.010926881147 1.0103182538 -0.029658435693 -0.010715063893 1.0100374082 -0.029691407919
          -0.010734201669 1.0098843321 -0.029956547381 -0.010139152871 1.009515609 -0.029443539342
          -0.01065410087 1.0144285499 -0.030955063436 -0.010701555213 1.0135117259 -0.030690750337
          -0.010586434177 1.0127394336 -0.03077132751 -0.010530342555 1.011959341 -0.030651495223
          -0.010519928316 1.0113158544 -0.030516918067 -0.010398505164 1.0107460493 -0.030529876439
          -0.010418469061 1.0102474964 -0.030582199152 -0.010328587972 1.009833196 -0.030715525385
          -0.010231497561 1.0095017478 -0.030643952642 -0.010319621665 1.0091892595 -0.030857187568
          -0.0097613747565 1.0137623658 -0.03149930869 -0.010240310409 1.0135407386 -0.031446456865
          -0.0099097532316 1.0126628699 -0.031480962036 -0.009983923431 1.0119076601 -0.031420252938
          -0.0099304644555 1.0112961938 -0.031351633542 -0.0098570513331 1.0107641703 -0.031348482529
          -0.009791805676 1.0102318146 -0.031350083112 -0.0098751107954 1.0097803035 -0.031452889546
          -0.0095624151577 1.0095013132 -0.031403933508 -0.009917562433 1.0087173812 -0.031301480046
          -0.0091358685318 1.0139296894 -0.032173393242 -0.0088816894757 1.0134145185 -0.032355503123
          -0.0094331616738 1.0126286315 -0.032259228769 -0.0093498271602 1.0119818202 -0.032186383485
          -0.0093706122277 1.0112468596 -0.032186918673 -0.009230453468 1.0106599465 -0.032108844002
          -0.0093066619801 1.0102341039 -0.032139023074 -0.0092118980535 1.009771056 -0.032208988302
          -0.0097628079779 1.0094180179 -0.032293290219 -0.0095065790271 1.0088013372 -0.032053569307
          -0.0084974378993 1.0141632631 -0.032814576793 -0.0084072300448 1.013343558 -0.033058402