<?xml version="1.0"?>
<VTKFile type="UnstructuredGrid" version="0.1" byte_order="LittleEndian" compressor="vtkZLibDataCompressor">
  <UnstructuredGrid>
    <FieldData>
      <DataArray type="Float64" Name="TIME" NumberOfTuples="1" format="ascii" RangeMin="0.22023522309" RangeMax="0.22023522309">
        0.22023522309
      </DataArray>
    </FieldData>
    <Piece NumberOfPoints="1000" NumberOfCells="0">
      <PointData>
        <DataArray type="Float64" Name="Damage" format="ascii" RangeMin="0" RangeMax="0.49719101124">
          0 0 0 0 0 0
          0 0 0 0 0 0.027932960894
          0 0 0 0 0 0
          0.027932960894 0 0 0.055084745763 0.071428571429 0.040345821326
          0.014164305949 0.012987012987 0.040345821326 0.071428571429 0.055084745763 0
          0 0.067669172932 0.11239193084 0.1074168798 0.037688442211 0.034562211982
          0.1074168798 0.11239193084 0.067669172932 0 0 0.074349442379
          0.16147308782 0.16834170854 0.12376237624 0.11286681716 0.16834170854 0.16147308782
          0.074349442379 0 0 0.084459459459 0.2 0.25806451613
          0.33860045147 0.39211618257 0.25806451613 0.2 0.084459459459 0
          0 0.093984962406 0.25360230548 0.36061381074 0.41959798995 0.46774193548
          0.36061381074 0.25360230548 0.093984962406 0 0 0.10593220339
          0.31493506494 0.40057636888 0.4447592068 0.49090909091 0.40057636888 0.31493506494
          0.10593220339 0 0 0.16759776536 0.3686440678 0.43984962406
          0.44609665428 0.49662162162 0.43984962406 0.3686440678 0.16759776536 0
          0 0.1677852349 0.36734693878 0.43891402715 0.44642857143 0.49593495935
          0.43891402715 0.36734693878 0.1677852349 0 0 0
          0 0 0 0 0 0
          0 0 0 0.027906976744 0 0
          0 0 0 0 0.027906976744 0
          0 0.056338028169 0.072776280323 0.040669856459 0.014117647059 0.012931034483
          0.040669856459 0.072776280323 0.056338028169 0 0 0.06875
          0.11483253589 0.10828025478 0.0375782881 0.034416826004 0.10828025478 0.11483253589
          0.06875 0 0 0.074303405573 0.16235294118 0.16910229645
          0.12371134021 0.11257035647 0.16910229645 0.16235294118 0.074303405573 0
          0 0.084269662921 0.20043103448 0.25812619503 0.33771106942 0.39242685026
          0.25812619503 0.20043103448 0.084269662921 0 0 0.09375
          0.25358851675 0.36093418259 0.41962421712 0.46845124283 0.36093418259 0.25358851675
          0.09375 0 0 0.10563380282 0.3153638814 0.4019138756
          0.44470588235 0.49137931034 0.4019138756 0.3153638814 0.10563380282 0
          0 0.16744186047 0.36971830986 0.440625 0.44582043344 0.49719101124
          0.440625 0.36971830986 0.16744186047 0 0 0.16759776536
          0.3686440678 0.43984962406 0.44609665428 0.49662162162 0.43984962406 0.3686440678
          0.16759776536 0 0 0 0 0
          0 0 0 0 0 0
          0 0.024647887324 0 0 0 0
          0 0 0.024647887324 0 0 0.051212938005
          0.06875 0.038817005545 0.012635379061 0.011666666667 0.038817005545 0.06875
          0.051212938005 0 0 0.064593301435 0.10905730129 0.10491803279
          0.036858974359 0.034023668639 0.10491803279 0.10905730129 0.064593301435 0
          0 0.070588235294 0.15523465704 0.16506410256 0.12283464567 0.11271676301
          0.16506410256 0.15523465704 0.070588235294 0 0 0.081896551724
          0.19333333333 0.25443786982 0.33959537572 0.38985313752 0.25443786982 0.19333333333
          0.081896551724 0 0 0.093301435407 0.24768946396 0.35573770492
          0.41987179487 0.46449704142 0.35573770492 0.24768946396 0.093301435407 0
          0 0.10781671159 0.30833333333 0.39556377079 0.4440433213 0.48666666667
          0.39556377079 0.30833333333 0.10781671159 0 0 0.16197183099
          0.35579514825 0.43062200957 0.44470588235 0.49137931034 0.43062200957 0.35579514825
          0.16197183099 0 0 0.16101694915 0.3538961039 0.42939481268
          0.4447592068 0.49090909091 0.42939481268 0.3538961039 0.16101694915 0
          0 0 0 0 0 0
          0 0 0 0 0 0.025
          0 0 0 0 0 0
          0.025 0 0 0.05023923445 0.068391866913 0.039344262295
          0.012820512821 0.011834319527 0.039344262295 0.068391866913 0.05023923445 0
          0 0.063694267516 0.10819672131 0.10465116279 0.036984352774 0.034120734908
          0.10465116279 0.10819672131 0.063694267516 0 0 0.070981210856
          0.15544871795 0.16500711238 0.12290502793 0.11282051282 0.16500711238 0.15544871795
          0.070981210856 0 0 0.082217973231 0.19378698225 0.25459317585
          0.33974358974 0.38981042654 0.25459317585 0.19378698225 0.082217973231 0
          0 0.093418259023 0.24918032787 0.35610465116 0.41963015647 0.46456692913
          0.35610465116 0.24918032787 0.093418259023 0 0 0.10765550239
          0.30868761553 0.39508196721 0.44391025641 0.48668639053 0.39508196721 0.30868761553
          0.10765550239 0 0 0.1625 0.35645933014 0.43099787686
          0.44467640919 0.4913957935 0.43099787686 0.35645933014 0.1625 0
          0 0.16165413534 0.35446685879 0.42966751918 0.44472361809 0.49078341014
          0.42966751918 0.35446685879 0.16165413534 0 0 0
          0 0 0 0 0 0
          0 0 0 0.02786377709 0 0
          0 0 0 0 0.02786377709 0
          0 0.054117647059 0.070397111913 0.040064102564 0.014173228346 0.013005780347
          0.040064102564 0.070397111913 0.054117647059 0 0 0.066805845511
          0.11057692308 0.106685633 0.037709497207 0.034615384615 0.106685633 0.11057692308
          0.066805845511 0 0 0.074226804124 0.16062992126 0.16759776536
          0.12362637363 0.11292346299 0.16759776536 0.16062992126 0.074226804124 0
          0 0.084427767355 0.19942196532 0.25769230769 0.33877038896 0.39145496536
          0.25769230769 0.19942196532 0.084427767355 0 0 0.093945720251
          0.25320512821 0.35988620199 0.41899441341 0.46666666667 0.35988620199 0.25320512821
          0.093945720251 0 0 0.10588235294 0.31407942238 0.39903846154
          0.44409448819 0.48988439306 0.39903846154 0.31407942238 0.10588235294 0
          0 0.16718266254 0.36705882353 0.43841336117 0.44536082474 0.49530956848
          0.43841336117 0.36705882353 0.16718266254 0 0 0.16728624535
          0.36543909348 0.43718592965 0.44554455446 0.49435665914 0.43718592965 0.36543909348
          0.16728624535 0 0 0 0 0
          0 0 0 0 0 0
          0 0.025280898876 0 0 0 0
          0 0 0.025280898876 0 0 0.049568965517
          0.066666666667 0.038461538462 0.013005780347 0.012016021362 0.038461538462 0.066666666667
          0.049568965517 0 0 0.06309751434 0.1050295858 0.10367454068
          0.037179487179 0.034360189573 0.10367454068 0.1050295858 0.06309751434 0
          0 0.071294559099 0.15462427746 0.1641025641 0.12296110414 0.11316397229
          0.1641025641 0.15462427746 0.071294559099 0 0 0.082616179002
          0.19359145527 0.25473933649 0.34064665127 0.38930481283 0.25473933649 0.19359145527
          0.082616179002 0 0 0.093690248566 0.24852071006 0.35564304462
          0.41923076923 0.46327014218 0.35564304462 0.24852071006 0.093690248566 0
          0 0.10775862069 0.30833333333 0.39349112426 0.4436416185 0.48598130841
          0.39349112426 0.30833333333 0.10775862069 0 0 0.16292134831
          0.35560344828 0.43021032505 0.44465290807 0.49053356282 0.43021032505 0.35560344828
          0.16292134831 0 0 0.16216216216 0.35324675325 0.42857142857
          0.44469525959 0.48962655602 0.42857142857 0.35324675325 0.16216216216 0
          0 0 0 0 0 0
          0 0 0 0 0 0.025
          0 0 0 0 0 0
          0.025 0 0 0.05023923445 0.068391866913 0.039344262295
          0.012820512821 0.011834319527 0.039344262295 0.068391866913 0.05023923445 0
          0 0.063694267516 0.10819672131 0.10465116279 0.036984352774 0.034120734908
          0.10465116279 0.10819672131 0.063694267516 0 0 0.070981210856
          0.15544871795 0.16500711238 0.12290502793 0.11282051282 0.16500711238 0.15544871795
          0.070981210856 0 0 0.082217973231 0.19378698225 0.25459317585
          0.33974358974 0.38981042654 0.25459317585 0.19378698225 0.082217973231 0
          0 0.093418259023 0.24918032787 0.35610465116 0.41963015647 0.46456692913
          0.35610465116 0.24918032787 0.093418259023 0 0 0.10765550239
          0.30868761553 0.39508196721 0.44391025641 0.48668639053 0.39508196721 0.30868761553
          0.10765550239 0 0 0.1625 0.35645933014 0.43099787686
          0.44467640919 0.4913957935 0.43099787686 0.35645933014 0.1625 0
          0 0.16165413534 0.35446685879 0.42966751918 0.44472361809 0.49078341014
          0.42966751918 0.35446685879 0.16165413534 0 0 0
          0 0 0 0 0 0
          0 0 0 0.024647887324 0 0
          0 0 0 0 0.024647887324 0
          0 0.051212938005 0.06875 0.038817005545 0.012635379061 0.011666666667
          0.038817005545 0.06875 0.051212938005 0 0 0.064593301435
          0.10905730129 0.10491803279 0.036858974359 0.034023668639 0.10491803279 0.10905730129
          0.064593301435 0 0 0.070588235294 0.15523465704 0.16506410256
          0.12283464567 0.11271676301 0.16506410256 0.15523465704 0.070588235294 0
          0 0.081896551724 0.19333333333 0.25443786982 0.33959537572 0.38985313752
          0.25443786982 0.19333333333 0.081896551724 0 0 0.093301435407
          0.24768946396 0.35573770492 0.41987179487 0.46449704142 0.35573770492 0.24768946396
          0.093301435407 0 0 0.10781671159 0.30833333333 0.39556377079
          0.4440433213 0.48666666667 0.39556377079 0.30833333333 0.10781671159 0
          0 0.16197183099 0.35579514825 0.43062200957 0.44470588235 0.49137931034
          0.43062200957 0.35579514825 0.16197183099 0 0 0.16101694915
          0.3538961039 0.42939481268 0.4447592068 0.49090909091 0.42939481268 0.3538961039
          0.16101694915 0 0 0 0 0
          0 0 0 0 0 0
          0 0.027906976744 0 0 0 0
          0 0 0.027906976744 0 0 0.056338028169
          0.072776280323 0.040669856459 0.014117647059 0.012931034483 0.040669856459 0.072776280323
          0.056338028169 0 0 0.06875 0.11483253589 0.10828025478
          0.0375782881 0.034416826004 0.10828025478 0.11483253589 0.06875 0
          0 0.074303405573 0.16235294118 0.16910229645 0.12371134021 0.11257035647
          0.16910229645 0.16235294118 0.074303405573 0 0 0.084269662921
          0.20043103448 0.25812619503 0.33771106942 0.39242685026 0.25812619503 0.20043103448
          0.084269662921 0 0 0.09375 0.25358851675 0.36093418259
          0.41962421712 0.46845124283 0.36093418259 0.25358851675 0.09375 0
          0 0.10563380282 0.3153638814 0.4019138756 0.44470588235 0.49137931034
          0.4019138756 0.3153638814 0.10563380282 0 0 0.16744186047
          0.36971830986 0.440625 0.44582043344 0.49719101124 0.440625 0.36971830986
          0.16744186047 0 0 0.16759776536 0.3686440678 0.43984962406
          0.44609665428 0.49662162162 0.43984962406 0.3686440678 0.16759776536 0
          0 0 0 0 0 0
          0 0 0 0 0 0.027932960894
          0 0 0 0 0 0
          0.027932960894 0 0 0.055084745763 0.071428571429 0.040345821326
          0.014164305949 0.012987012987 0.040345821326 0.071428571429 0.055084745763 0
          0 0.067669172932 0.11239193084 0.1074168798 0.037688442211 0.034562211982
          0.1074168798 0.11239193084 0.067669172932 0 0 0.074349442379
          0.16147308782 0.16834170854 0.12376237624 0.11286681716 0.16834170854 0.16147308782
          0.074349442379 0 0 0.084459459459 0.2 0.25806451613
          0.33860045147 0.39211618257 0.25806451613 0.2 0.084459459459 0
          0 0.093984962406 0.25360230548 0.36061381074 0.41959798995 0.46774193548
          0.36061381074 0.25360230548 0.093984962406 0 0 0.10593220339
          0.31493506494 0.40057636888 0.4447592068 0.49090909091 0.40057636888 0.31493506494
          0.10593220339 0 0 0.16759776536 0.3686440678 0.43984962406
          0.44609665428 0.49662162162 0.43984962406 0.3686440678 0.16759776536 0
          0 0.1677852349 0.36734693878 0.43891402715 0.44642857143 0.49593495935
          0.43891402715 0.36734693878 0.1677852349 0
        </DataArray>
        <DataArray type="Float64" Name="Displacement" NumberOfComponents="3" format="ascii" RangeMin="1.8615060492" RangeMax="1.8764184408">
          0.0019096445682 1.866077584 -0.0020899715818 -0.0022251442481 1.8692320671 -0.0067628949637
          -0.0018006026104 1.868554816 -0.0039289855495 -0.0018133219979 1.8685140532 -0.0040810749061
          -0.0019168596755 1.868555258 -0.0041622862012 -0.0020637328143 1.8683785082 -0.0041473130919
          -0.0020767959093 1.868215442 -0.0040782815739 -0.0020791164853 1.8680261969 -0.0038959619018
          -0.0017047063194 1.8684366351 -0.0067018159485 -0.0059163085946 1.8650190648 -0.0021392451321
          -0.002317381792 1.8674088983 -0.0055002559711 -0.0026267759332 1.8697743907 -0.0043769598423
          -0.0017896513912 1.8689392191 -0.0047146764707 -0.0020970012318 1.8681964902 -0.0039951771417
          -0.0018743772946 1.8679731784 -0.0040372668406 -0.0019518969085 1.8679832206 -0.004159609218
          -0.0015259544139 1.8678382458 -0.0039240074186 -0.0018792335216 1.8683521133 -0.0046640983509
          -0.0010819510414 1.8690415074 -0.0043811619341 -0.0012922902759 1.8663936835 -0.005383589732
          -0.0020199007696 1.8693832604 -0.0044937686415 -0.0015345304197 1.8692229269 -0.005175596957
          -0.0018312344824 1.8694786039 -0.0051369519719 -0.0015681319344 1.8687848525 -0.0049275914787
          -0.0017045899468 1.8685561785 -0.0047999896394 -0.0016891653198 1.8684304094 -0.004773924111
          -0.0018650857708 1.8684680864 -0.004928432663 -0.0016150021787 1.8689526514 -0.0051328104205
          -0.001933995327 1.8684516458 -0.0051830314332 -0.0014282495615 1.868392297 -0.0045007413162
          -0.0025262358249 1.8686440985 -0.0042363640023 -0.0021445467594 1.8691696653 -0.0051186113144
          -0.001631392609 1.8685003064 -0.0051454450063 -0.0015600441216 1.8687271824 -0.0051662042619
          -0.0016214061868 1.8685178247 -0.004804795806 -0.0016269538383 1.8684025155 -0.0048794268259
          -0.0016457301383 1.8683616827 -0.0051007016719 -0.001610240339 1.8679709244 -0.0051358494265
          -0.001081590892 1.8684185283 -0.0051218121219 -0.0006823928808 1.8676257558 -0.0042364822394
          -0.0027070502986 1.8682734903 -0.0043581756152 -0.0020663086229 1.868326151 -0.0051171101564
          -0.0015651353665 1.8687487019 -0.0053470356576 -0.0015796044009 1.8688452999 -0.0053565711188
          -0.0017422390025 1.8683095289 -0.0055194632961 -0.0013203834487 1.8686363847 -0.0054522650243
          -0.0013999578298 1.8684534936 -0.0053427452819 -0.0014529043861 1.8682234871 -0.0053287497985
          -0.00094846945591 1.8675588006 -0.0051157160926 -0.00026982545423 1.8672906161 -0.0043490502939
          -0.003180618644 1.8686640659 -0.0041947955633 -0.0021661517968 1.8686067835 -0.0053255823194
          -0.001559684525 1.8684926568 -0.0057406762274 -0.0014000493148 1.8687659535 -0.0054985217616
          -0.0011388443213 1.8687288192 -0.0053279103684 -0.0016972757808 1.8686346602 -0.0052881280873
          -0.0014205031146 1.8684351591 -0.0054797920439 -0.0012412488023 1.8679445591 -0.0057174974996
          -0.0006422160117 1.8678324399 -0.0053168892595 0.00043488969235 1.8676886853 -0.0041440112522
          -0.0034420135552 1.8683420743 -0.0043390089555 -0.0014715044657 1.8688224247 -0.0057823421251
          -0.0012392998447 1.8682680706 -0.0063029471777 3.7342669621e-05 1.8684648283 -0.0057034730432
          -0.00162881123 1.86944288 -0.0053669923871 -0.00092496740433 1.8693255819 -0.0053712458438
          -0.0026464238208 1.8681124878 -0.005705592655 -0.0013663129428 1.8677100001 -0.0062957824017
          -0.0011500577784 1.8680426974 -0.0058035703816 0.00095256023548 1.8673232583 -0.0042654254952
          -0.0032889237408 1.8685519456 -0.0048564479697 -0.0010233188261 1.8678153828 -0.0069025524983
          -0.0015735303822 1.8679909573 -0.0061981505499 -0.0011081128056 1.8684385957 -0.0056825185879
          -0.0016258365237 1.8696464499 -0.0053237585486 -0.00066511332699 1.869543295 -0.0053508554841
          -0.0013054275784 1.8681219967 -0.0056385904007 -0.00081192471682 1.8674413922 -0.0061919769605
          -0.001404803541 1.8670084525 -0.0069615223598 0.0010114730739 1.8675678339 -0.0047835373489
          -0.0019122824728 1.8670774221 -0.0069142216233 -0.0039396590068 1.8672317656 -0.0056841402058
          -0.0014001589959 1.8652529682 -0.0079394771322 -0.00066160166143 1.8655573155 -0.0073264737368
          -0.0024819723751 1.8699181059 -0.0051935389107 0.00030030152101 1.8698203704 -0.0051408643929
          -0.0015081378794 1.8652007401 -0.0073411102396 -0.00077909103697 1.8646780224 -0.0079855084436
          0.0019032567093 1.8663655807 -0.0057364662552 -0.00035824946215 1.8661771453 -0.0070380127996
          -0.0013812779165 1.8745252788 0.00096617765826 -0.0030765052499 1.8623476756 -0.0099766006746
          -0.0015023956088 1.8645087977 -0.0088539633131 -0.0027915806724 1.8639356904 -0.0095522153881
          -0.0019113666809 1.8660006414 -0.0081279882893 -0.00013702347468 1.865827062 -0.0080696592376
          0.0008274991663 1.8635818934 -0.0095896832599 -0.00046493426206 1.8640053165 -0.0089076863493
          0.0010717504083 1.8614777207 -0.010213608097 -0.0003750395044 1.8733808738 0.00081951074414
          -0.003717271436 1.8699080733 -0.0042769143211 -0.0011184188429 1.8691595785 -0.0049596685982
          -0.0019299657508 1.8691715695 -0.0046349507051 -0.0021783615756 1.8684275923 -0.0036129328658
          -0.0020362754302 1.8681570127 -0.0036548809526 -0.0019439968046 1.8681452392 -0.0037771046393
          -0.0016565700426 1.8680792812 -0.0035312882275 -0.00196480009 1.8686005863 -0.0045664098814
          -0.0027416720075 1.8684696515 -0.0049811102647 -0.0001028623293 1.8689785923 -0.0042606260615
          -0.001549759777 1.8705340737 -0.0057622979961 -0.0014553209086 1.8692615093 -0.0050705607807
          -0.0021088859978 1.8694397308 -0.0046759898911 -0.001895215646 1.8688358744 -0.0043745043393
          -0.001777325331 1.8684801922 -0.004228784354 -0.0018896493039 1.8682105945 -0.0041192087393
          -0.0017793291497 1.8685169766 -0.0043899275278 -0.0015301052872 1.8689289793 -0.0046661282456
          -0.0022067204189 1.8685166726 -0.0050768936032 -0.0021082187571 1.8695989657 -0.0057933256183
          -0.0018038156912 1.8694031477 -0.0050279711263 -0.0018342797478 1.8696536729 -0.0053373304544
          -0.0013906630989 1.8695585917 -0.0054105509236 -0.0016509776142 1.8690193448 -0.004773523047
          -0.0016914209018 1.8689459184 -0.0047290080385 -0.0017474880043 1.8688544834 -0.0047578169199
          -0.0018032800068 1.8686624836 -0.0047605900505 -0.0020487087177 1.8690036603 -0.0053799534427
          -0.0016217070419 1.8688837599 -0.0053443408672 -0.0016592061571 1.8684049532 -0.0050565996043
          -0.0020844952525 1.8689837239 -0.0049978438822 -0.0013955638022 1.86907356 -0.0052601003425
          -0.0016550493298 1.8691682103 -0.0049659716427 -0.0015052717993 1.8691558695 -0.0051486114053
          -0.0015873063457 1.8691237354 -0.0049522893357 -0.0016329098762 1.8690182521 -0.0049797595901
          -0.0017324556435 1.8688375544 -0.0051515684004 -0.001568691602 1.8686042479 -0.0049403003973
          -0.001826166642 1.8683170927 -0.0052579256841 -0.0011569477107 1.8679817546 -0.0049917972361
          -0.0019950527293 1.8686430997 -0.0051688718187 -0.0016540543978 1.8688599946 -0.0055492168079
          -0.0017120690774 1.8690166186 -0.0053799775412 -0.0015162219908 1.8690789964 -0.0054189455296
          -0.0015667278026 1.8691362422 -0.0052499873466 -0.0014777678728 1.8690076287 -0.005199633346
          -0.0014940557546 1.8687435721 -0.0054327368935 -0.0012777524851 1.8684639995 -0.0053667385743
          -0.0013479154505 1.8680994762 -0.0055441224991 -0.0010156546607 1.8676443893 -0.0051695138151
          -0.0019126830183 1.8687943699 -0.0050156008887 -0.0014451544762 1.8689920743 -0.0054425851527
          -0.0015041574384 1.8690901423 -0.0052722017739 -0.0017318758775 1.8690364138 -0.005266856211
          -0.001637495853 1.8691721193 -0.0050905780332 -0.0011640624222 1.8690787713 -0.0050900754876
          -0.0010681450831 1.8687145089 -0.0052843269773 -0.0012688653574 1.8685302096 -0.0052738319448
          -0.0013393141759 1.868223342 -0.0054380694081 -0.00086835029622 1.8677977331 -0.0050234489874
          -0.0022869509156 1.8683516688 -0.0052441496667 -0.0017272839706 1.8687333108 -0.0059065274999
          -0.0017807663032 1.868792912 -0.0058522575024 -0.0009861065731 1.8691056126 -0.0054240364026
          -0.0015835442135 1.8693260967 -0.0052082023828 -0.0010090250053 1.8692226918 -0.0051991224034
          -0.0015839140478 1.8687758445 -0.0054229983026 -0.00078678025914 1.868231463 -0.0058532563115
          -0.00084699424588 1.8679529769 -0.0059155472439 -0.00027555906412 1.8673522713 -0.0052534412259
          -0.0017177318565 1.8681451953 -0.0065050300342 -0.0018189274541 1.8687121273 -0.0060601747564
          -0.0012791870553 1.8689428201 -0.005720821349 -0.0014363670741 1.8691128844 -0.0055419615489
          -0.00089985586207 1.8695098385 -0.0045134749235 -0.0014698156168 1.8694052771 -0.0044903363593
          -0.00092208923945 1.8687740145 -0.0055430517502 -0.0010727647156 1.8683827993 -0.0057169484527
          -0.00055583092358 1.8679292909 -0.0060770270338 -0.00064765049005 1.8671554877 -0.0065347752591
          -0.0035647560422 1.8652979653 -0.0077015241523 -0.0022953156349 1.8680960898 -0.0065521644067
          -0.001763157358 1.8678516149 -0.0073457846354 -0.0016760871947 1.868226433 -0.0066346966812
          -0.00053008689053 1.8698635959 -0.0035535605727 -0.0016147700246 1.8697798796 -0.0034819015721
          -0.00043280494582 1.8678983457 -0.0066185996222 -0.00035433065834 1.867291709 -0.0073161131601
          0.00016167876617 1.8672706507 -0.0065675640435 0.0014847872956 1.8641768215 -0.0077135194354
          -0.0044723635848 1.8653149292 -0.0062318825052 -0.0034723146518 1.8668046388 -0.0067781657221
          -0.001818514765 1.8689592823 -0.0048048157804 -0.0010771398203 1.8672625592 -0.0067158696777
          -0.0049806683084 1.8692721681 -0.0066254514929 0.0031200233999 1.8692455416 -0.0066039821711
          -0.00079137196549 1.8669224375 -0.0067583356446 -6.4237941606e-05 1.8683875055 -0.0047829575921
          0.0016842154012 1.8659165756 -0.0067926357122 0.0024014976917 1.8644514242 -0.0062332624445
          -0.00099047020018 1.8688846157 -0.0044850810585 -0.0017901860744 1.869437787 -0.0047841033311
          -0.002212005675 1.8697687933 -0.0049111894127 -0.0019522131537 1.8690229599 -0.004293736711
          -0.0019384894031 1.8690416795 -0.0044316855271 -0.0019255470252 1.8689401248 -0.0044411565262
          -0.0019337835554 1.8686604936 -0.0042721583319 -0.001636783584 1.8692292812 -0.0048985709864
          -0.0021055148902 1.868689032 -0.0047731209322 -0.0029832990813 1.8678153125 -0.0044623408761
          -0.001668207212 1.8695257684 -0.0049125726575 -0.0018811121877 1.869403153 -0.0046482467421
          -0.0021084297363 1.8700313286 -0.005003009555 -0.0017926276131 1.8693180166 -0.0047205470168
          -0.0018123720495 1.8691267934 -0.004604438389 -0.0018567891627 1.8690443448 -0.0046198798506
          -0.0018793073467 1.868977258 -0.0047150008987 -0.0015556199038 1.8694853931 -0.0049925896374
          -0.0017713582652 1.8686369717 -0.0046376559941 -0.0019829684024 1.8685545613 -0.0049107107701
          -0.0019874239817 1.8695105959 -0.0049231493141 -0.0016063888235 1.8693429084 -0.0049809965837
          -0.0016293072755 1.8694065339 -0.0050845139653 -0.0016435163981 1.8693737056 -0.0048526654883
          -0.0017125144084 1.869340716 -0.0048635162148 -0.00172614388 1.8692117165 -0.0049025589015
          -0.0018023860987 1.8690515883 -0.0048514833045 -0.0018196601227 1.8688571423 -0.0050734089212
          -0.001826850898 1.8685824471 -0.004972689568 -0.0014664338035 1.8685315384 -0.0049151564036
          -0.0016784690023 1.8690885244 -0.0051168233507 -0.0016502532523 1.8693627817 -0.005153120888
          -0.0016309609114 1.8693310868 -0.0050809264263 -0.0015778309829 1.8693673702 -0.0050956784109
          -0.0015827559025 1.8695175885 -0.0048915147934 -0.0016130218746 1.8694066342 -0.0048863888629
          -0.001650666487 1.869041786 -0.005101429999 -0.0016003481819 1.8687821199 -0.0050759476463
          -0.001557357546 1.8685974651 -0.0051336618288 -0.0015684398667 1.8681036494 -0.0051370976956
          -0.0015183537734 1.8688597788 -0.0053946912077 -0.0017395230219 1.8692242855 -0.0052860855134
          -0.0016314587093 1.8692282408 -0.0052320363748 -0.001612347279 1.8693297451 -0.0052257819653
          -0.0014933164961 1.8694368101 -0.0051204445679 -0.0014878938685 1.8693399179 -0.0051109308821
          -0.0013951036769 1.8690023988 -0.0052046672338 -0.0013856717555 1.8686851878 -0.0052257063474
          -0.0012520800672 1.8684591458 -0.0052748321471 -0.0015041281642 1.8678723522 -0.0054031468932
          -0.0016895205801 1.869291996 -0.0053615080769 -0.0017910710266 1.8692290879 -0.0052841373545
          -0.0016070792628 1.8692322065 -0.0054286361552 -0.001699123187 1.8693771012 -0.0053812284281
          -0.0020469181377 1.8693318237 -0.0054129557902 -0.00075026356758 1.8692274988 -0.0053877830582
          -0.0010883491346 1.8690364535 -0.0053733797037 -0.0011771340916 1.8686830199 -0.0054260022582
          -0.00098425166531 1.8684622885 -0.005271294947 -0.0011051779745 1.8683108953 -0.0053635137903
          -0.0018416213096 1.8691559455 -0.0054923991608 -0.0016155545479 1.8691464974 -0.0058254801707
          -0.0019153129129 1.8692759563 -0.0056027336367 -0.0016241667491 1.8693546662 -0.0054549714243
          -0.00090537352418 1.8695931312 -0.0046316067798 -0.0016308911605 1.8694951959 -0.0046469778548
          -0.00093426511698 1.8690359523 -0.0054470207839 -0.00064267207396 1.8687265836 -0.0055951725643
          -0.00092819660311 1.8683657845 -0.0058274080544 -0.0007271315245 1.868173346 -0.0054913666135
          -0.0018110735975 1.8688442342 -0.0059837192609 -0.0025327787764 1.8690743765 -0.0056005827175
          -0.001956264333 1.8691614438 -0.0059149898451 -0.0016016111497 1.8693832791 -0.0056633003649
          -0.0031311299048 1.8701797958 -0.0053849282586 0.00080120230266 1.870078743 -0.005382240364
          -0.00070646148496 1.869056971 -0.0056724567349 -0.00036683081527 1.8686109795 -0.0059093263687
          0.00021045324201 1.8683078571 -0.0055934330872 -0.00055854506524 1.8678602676 -0.0060065572174
          -0.0023253763835 1.8683411212 -0.0062618707898 -0.0030535420951 1.8684735453 -0.0065632761838
          -0.0017692173949 1.8688789315 -0.0071672641593 -0.003153233463 1.8699541151 -0.0064224073155
          -0.0030908727184 1.8705973012 -0.0053907976015 0.00099625351116 1.8705136085 -0.005393581918
          0.0010696783442 1.8696233191 -0.0064284544335 -0.00032078133811 1.8683387852 -0.0071499470607
          0.00089902500154 1.8677203356 -0.0065858342783 0.00017884478336 1.867399618 -0.0063019294763
          0.0019439805099 1.8743825785 -0.0069512038651 -0.0029442525355 1.8690373552 -0.0076388221809
          -0.0047133768177 1.8706146066 -0.0054941561527 -0.0055805310463 1.8716320826 -0.0057206981981
          -0.0052404890954 1.8723162396 -0.0061289609338 0.0034050577552 1.8722096881 -0.0061161488052
          0.0036808159865 1.8712598291 -0.0057205114217 0.0028250932037 1.8700258605 -0.0055339755259
          0.00097789567382 1.8682978149 -0.007614082391 -0.0039485921534 1.8733886115 -0.0069576329514
          -0.0010544992561 1.8689867773 -0.0045904887706 -0.0015364075771 1.8692604081 -0.0044329134597
          -0.001295457014 1.8691132158 -0.0046967688113 -0.0019144710149 1.8696166622 -0.0045888216844
          -0.0018649538054 1.8693103925 -0.0043688700485 -0.0019999860564 1.8692302151 -0.0043837403225
          -0.0019601876662 1.8692736455 -0.0045860674959 -0.0025713754198 1.8685703571 -0.0046948616002
          -0.0023697045461 1.8684991773 -0.0044169434019 -0.0028802035241 1.8679539875 -0.0045875518902
          -0.0013979999983 1.8689761407 -0.0044533819496 -0.0013981605692 1.8692439171 -0.0047797586065
          -0.0016886378485 1.8694947535 -0.0047516768841 -0.0018241072451 1.8695205519 -0.0047751504641
          -0.0018068177415 1.8694644481 -0.0047301523077 -0.001842055347 1.8693443327 -0.0047257841704
          -0.001833433001 1.8691743677 -0.0047775488752 -0.0019737781553 1.8689467445 -0.0047542968882
          -0.0022395524485 1.8685031789 -0.0047706482683 -0.0022792977304 1.8679794105 -0.0044634010862
          -0.0019801600626 1.8697037393 -0.0049645793545 -0.0015992995818 1.8694176197 -0.004957063239
          -0.0016892744303 1.8695249095 -0.0049299951582 -0.0016951264521 1.8695529174 -0.0048925078828
          -0.0016715598744 1.869540457 -0.0048642706092 -0.001754593801 1.8694269497 -0.0048617139201
          -0.0017602477533 1.8692207095 -0.0049017196445 -0.0017518760905 1.8689855078 -0.0049278541841
          -0.0018228320295 1.8686525598 -0.0049481111678 -0.0014802345748 1.8687099178 -0.0049514874291
          -0.0016561824539 1.8691110165 -0.0050350923003 -0.0016640673434 1.8693609682 -0.005088167224
          -0.0016249011311 1.8694908736 -0.0050333215301 -0.0015985554907 1.8695827039 -0.0050091266695
          -0.0016055337595 1.8697378596 -0.0049837953451 -0.0016519680255 1.8696437906 -0.0049691245715
          -0.0016231228049 1.8692553447 -0.0050244972282 -0.0016025618591 1.868941134 -0.0050416027951
          -0.0015631531672 1.8686003971 -0.0050886118132 -0.001544074857 1.8681438851 -0.0050086190234
          -0.0017175021013 1.86888678 -0.0051670352907 -0.0017651883933 1.8693585314 -0.0052617947341