<?xml version="1.0"?>
<VTKFile type="UnstructuredGrid" version="0.1" byte_order="LittleEndian" compressor="vtkZLibDataCompressor">
  <UnstructuredGrid>
    <FieldData>
      <DataArray type="Float64" Name="TIME" NumberOfTuples="1" format="ascii" RangeMin="0.30830644261" RangeMax="0.30830644261">
        0.30830644261
      </DataArray>
    </FieldData>
    <Piece NumberOfPoints="1000" NumberOfCells="0">
      <PointData>
        <DataArray type="Float64" Name="Damage" format="ascii" RangeMin="0" RangeMax="0.49719101124">
          0 0 0 0 0 0
          0 0 0 0 0 0.027932960894
          0 0 0 0 0 0
          0.027932960894 0 0 0.055084745763 0.071428571429 0.040345821326
          0.014164305949 0.012987012987 0.040345821326 0.071428571429 0.055084745763 0
          0 0.067669172932 0.11239193084 0.1074168798 0.037688442211 0.034562211982
          0.1074168798 0.11239193084 0.067669172932 0 0 0.074349442379
          0.16147308782 0.16834170854 0.12376237624 0.11286681716 0.16834170854 0.16147308782
          0.074349442379 0 0 0.084459459459 0.2 0.25806451613
          0.33860045147 0.39211618257 0.25806451613 0.2 0.084459459459 0
          0 0.093984962406 0.25360230548 0.36061381074 0.41959798995 0.46774193548
          0.36061381074 0.25360230548 0.093984962406 0 0 0.10593220339
          0.31493506494 0.40057636888 0.4447592068 0.49090909091 0.40057636888 0.31493506494
          0.10593220339 0 0 0.16759776536 0.3686440678 0.43984962406
          0.44609665428 0.49662162162 0.43984962406 0.3686440678 0.16759776536 0
          0 0.1677852349 0.36734693878 0.43891402715 0.44642857143 0.49593495935
          0.43891402715 0.36734693878 0.1677852349 0 0 0
          0 0 0 0 0 0
          0 0 0 0.027906976744 0 0
          0 0 0 0 0.027906976744 0
          0 0.056338028169 0.072776280323 0.040669856459 0.014117647059 0.012931034483
          0.040669856459 0.072776280323 0.056338028169 0 0 0.06875
          0.11483253589 0.10828025478 0.0375782881 0.034416826004 0.10828025478 0.11483253589
          0.06875 0 0 0.074303405573 0.16235294118 0.16910229645
          0.12371134021 0.11257035647 0.16910229645 0.16235294118 0.074303405573 0
          0 0.084269662921 0.20043103448 0.25812619503 0.33771106942 0.39242685026
          0.25812619503 0.20043103448 0.084269662921 0 0 0.09375
          0.25358851675 0.36093418259 0.41962421712 0.46845124283 0.36093418259 0.25358851675
          0.09375 0 0 0.10563380282 0.3153638814 0.4019138756
          0.44470588235 0.49137931034 0.4019138756 0.3153638814 0.10563380282 0
          0 0.16744186047 0.36971830986 0.440625 0.44582043344 0.49719101124
          0.440625 0.36971830986 0.16744186047 0 0 0.16759776536
          0.3686440678 0.43984962406 0.44609665428 0.49662162162 0.43984962406 0.3686440678
          0.16759776536 0 0 0 0 0
          0 0 0 0 0 0
          0 0.024647887324 0 0 0 0
          0 0 0.024647887324 0 0 0.051212938005
          0.06875 0.038817005545 0.012635379061 0.011666666667 0.038817005545 0.06875
          0.051212938005 0 0 0.064593301435 0.10905730129 0.10491803279
          0.036858974359 0.034023668639 0.10491803279 0.10905730129 0.064593301435 0
          0 0.070588235294 0.15523465704 0.16506410256 0.12283464567 0.11271676301
          0.16506410256 0.15523465704 0.070588235294 0 0 0.081896551724
          0.19333333333 0.25443786982 0.33959537572 0.38985313752 0.25443786982 0.19333333333
          0.081896551724 0 0 0.093301435407 0.24768946396 0.35573770492
          0.41987179487 0.46449704142 0.35573770492 0.24768946396 0.093301435407 0
          0 0.10781671159 0.30833333333 0.39556377079 0.4440433213 0.48666666667
          0.39556377079 0.30833333333 0.10781671159 0 0 0.16197183099
          0.35579514825 0.43062200957 0.44470588235 0.49137931034 0.43062200957 0.35579514825
          0.16197183099 0 0 0.16101694915 0.3538961039 0.42939481268
          0.4447592068 0.49090909091 0.42939481268 0.3538961039 0.16101694915 0
          0 0 0 0 0 0
          0 0 0 0 0 0.025
          0 0 0 0 0 0
          0.025 0 0 0.05023923445 0.068391866913 0.039344262295
          0.012820512821 0.011834319527 0.039344262295 0.068391866913 0.05023923445 0
          0 0.063694267516 0.10819672131 0.10465116279 0.036984352774 0.034120734908
          0.10465116279 0.10819672131 0.063694267516 0 0 0.070981210856
          0.15544871795 0.16500711238 0.12290502793 0.11282051282 0.16500711238 0.15544871795
          0.070981210856 0 0 0.082217973231 0.19378698225 0.25459317585
          0.33974358974 0.38981042654 0.25459317585 0.19378698225 0.082217973231 0
          0 0.093418259023 0.24918032787 0.35610465116 0.41963015647 0.46456692913
          0.35610465116 0.24918032787 0.093418259023 0 0 0.10765550239
          0.30868761553 0.39508196721 0.44391025641 0.48668639053 0.39508196721 0.30868761553
          0.10765550239 0 0 0.1625 0.35645933014 0.43099787686
          0.44467640919 0.4913957935 0.43099787686 0.35645933014 0.1625 0
          0 0.16165413534 0.35446685879 0.42966751918 0.44472361809 0.49078341014
          0.42966751918 0.35446685879 0.16165413534 0 0 0
          0 0 0 0 0 0
          0 0 0 0.02786377709 0 0
          0 0 0 0 0.02786377709 0
          0 0.054117647059 0.070397111913 0.040064102564 0.014173228346 0.013005780347
          0.040064102564 0.070397111913 0.054117647059 0 0 0.066805845511
          0.11057692308 0.106685633 0.037709497207 0.034615384615 0.106685633 0.11057692308
          0.066805845511 0 0 0.074226804124 0.16062992126 0.16759776536
          0.12362637363 0.11292346299 0.16759776536 0.16062992126 0.074226804124 0
          0 0.084427767355 0.19942196532 0.25769230769 0.33877038896 0.39145496536
          0.25769230769 0.19942196532 0.084427767355 0 0 0.093945720251
          0.25320512821 0.35988620199 0.41899441341 0.46666666667 0.35988620199 0.25320512821
          0.093945720251 0 0 0.10588235294 0.31407942238 0.39903846154
          0.44409448819 0.48988439306 0.39903846154 0.31407942238 0.10588235294 0
          0 0.16718266254 0.36705882353 0.43841336117 0.44536082474 0.49530956848
          0.43841336117 0.36705882353 0.16718266254 0 0 0.16728624535
          0.36543909348 0.43718592965 0.44554455446 0.49435665914 0.43718592965 0.36543909348
          0.16728624535 0 0 0 0 0
          0 0 0 0 0 0
          0 0.025280898876 0 0 0 0
          0 0 0.025280898876 0 0 0.049568965517
          0.066666666667 0.038461538462 0.013005780347 0.012016021362 0.038461538462 0.066666666667
          0.049568965517 0 0 0.06309751434 0.1050295858 0.10367454068
          0.037179487179 0.034360189573 0.10367454068 0.1050295858 0.06309751434 0
          0 0.071294559099 0.15462427746 0.1641025641 0.12296110414 0.11316397229
          0.1641025641 0.15462427746 0.071294559099 0 0 0.082616179002
          0.19359145527 0.25473933649 0.34064665127 0.38930481283 0.25473933649 0.19359145527
          0.082616179002 0 0 0.093690248566 0.24852071006 0.35564304462
          0.41923076923 0.46327014218 0.35564304462 0.24852071006 0.093690248566 0
          0 0.10775862069 0.30833333333 0.39349112426 0.4436416185 0.48598130841
          0.39349112426 0.30833333333 0.10775862069 0 0 0.16292134831
          0.35560344828 0.43021032505 0.44465290807 0.49053356282 0.43021032505 0.35560344828
          0.16292134831 0 0 0.16216216216 0.35324675325 0.42857142857
          0.44469525959 0.48962655602 0.42857142857 0.35324675325 0.16216216216 0
          0 0 0 0 0 0
          0 0 0 0 0 0.025
          0 0 0 0 0 0
          0.025 0 0 0.05023923445 0.068391866913 0.039344262295
          0.012820512821 0.011834319527 0.039344262295 0.068391866913 0.05023923445 0
          0 0.063694267516 0.10819672131 0.10465116279 0.036984352774 0.034120734908
          0.10465116279 0.10819672131 0.063694267516 0 0 0.070981210856
          0.15544871795 0.16500711238 0.12290502793 0.11282051282 0.16500711238 0.15544871795
          0.070981210856 0 0 0.082217973231 0.19378698225 0.25459317585
          0.33974358974 0.38981042654 0.25459317585 0.19378698225 0.082217973231 0
          0 0.093418259023 0.24918032787 0.35610465116 0.41963015647 0.46456692913
          0.35610465116 0.24918032787 0.093418259023 0 0 0.10765550239
          0.30868761553 0.39508196721 0.44391025641 0.48668639053 0.39508196721 0.30868761553
          0.10765550239 0 0 0.1625 0.35645933014 0.43099787686
          0.44467640919 0.4913957935 0.43099787686 0.35645933014 0.1625 0
          0 0.16165413534 0.35446685879 0.42966751918 0.44472361809 0.49078341014
          0.42966751918 0.35446685879 0.16165413534 0 0 0
          0 0 0 0 0 0
          0 0 0 0.024647887324 0 0
          0 0 0 0 0.024647887324 0
          0 0.051212938005 0.06875 0.038817005545 0.012635379061 0.011666666667
          0.038817005545 0.06875 0.051212938005 0 0 0.064593301435
          0.10905730129 0.10491803279 0.036858974359 0.034023668639 0.10491803279 0.10905730129
          0.064593301435 0 0 0.070588235294 0.15523465704 0.16506410256
          0.12283464567 0.11271676301 0.16506410256 0.15523465704 0.070588235294 0
          0 0.081896551724 0.19333333333 0.25443786982 0.33959537572 0.38985313752
          0.25443786982 0.19333333333 0.081896551724 0 0 0.093301435407
          0.24768946396 0.35573770492 0.41987179487 0.46449704142 0.35573770492 0.24768946396
          0.093301435407 0 0 0.10781671159 0.30833333333 0.39556377079
          0.4440433213 0.48666666667 0.39556377079 0.30833333333 0.10781671159 0
          0 0.16197183099 0.35579514825 0.43062200957 0.44470588235 0.49137931034
          0.43062200957 0.35579514825 0.16197183099 0 0 0.16101694915
          0.3538961039 0.42939481268 0.4447592068 0.49090909091 0.42939481268 0.3538961039
          0.16101694915 0 0 0 0 0
          0 0 0 0 0 0
          0 0.027906976744 0 0 0 0
          0 0 0.027906976744 0 0 0.056338028169
          0.072776280323 0.040669856459 0.014117647059 0.012931034483 0.040669856459 0.072776280323
          0.056338028169 0 0 0.06875 0.11483253589 0.10828025478
          0.0375782881 0.034416826004 0.10828025478 0.11483253589 0.06875 0
          0 0.074303405573 0.16235294118 0.16910229645 0.12371134021 0.11257035647
          0.16910229645 0.16235294118 0.074303405573 0 0 0.084269662921
          0.20043103448 0.25812619503 0.33771106942 0.39242685026 0.25812619503 0.20043103448
          0.084269662921 0 0 0.09375 0.25358851675 0.36093418259
          0.41962421712 0.46845124283 0.36093418259 0.25358851675 0.09375 0
          0 0.10563380282 0.3153638814 0.4019138756 0.44470588235 0.49137931034
          0.4019138756 0.3153638814 0.10563380282 0 0 0.16744186047
          0.36971830986 0.440625 0.44582043344 0.49719101124 0.440625 0.36971830986
          0.16744186047 0 0 0.16759776536 0.3686440678 0.43984962406
          0.44609665428 0.49662162162 0.43984962406 0.3686440678 0.16759776536 0
          0 0 0 0 0 0
          0 0 0 0 0 0.027932960894
          0 0 0 0 0 0
          0.027932960894 0 0 0.055084745763 0.071428571429 0.040345821326
          0.014164305949 0.012987012987 0.040345821326 0.071428571429 0.055084745763 0
          0 0.067669172932 0.11239193084 0.1074168798 0.037688442211 0.034562211982
          0.1074168798 0.11239193084 0.067669172932 0 0 0.074349442379
          0.16147308782 0.16834170854 0.12376237624 0.11286681716 0.16834170854 0.16147308782
          0.074349442379 0 0 0.084459459459 0.2 0.25806451613
          0.33860045147 0.39211618257 0.25806451613 0.2 0.084459459459 0
          0 0.093984962406 0.25360230548 0.36061381074 0.41959798995 0.46774193548
          0.36061381074 0.25360230548 0.093984962406 0 0 0.10593220339
          0.31493506494 0.40057636888 0.4447592068 0.49090909091 0.40057636888 0.31493506494
          0.10593220339 0 0 0.16759776536 0.3686440678 0.43984962406
          0.44609665428 0.49662162162 0.43984962406 0.3686440678 0.16759776536 0
          0 0.1677852349 0.36734693878 0.43891402715 0.44642857143 0.49593495935
          0.43891402715 0.36734693878 0.1677852349 0
        </DataArray>
        <DataArray type="Float64" Name="Displacement" NumberOfComponents="3" format="ascii" RangeMin="1.0391996042" RangeMax="1.0637928826">
          -0.0070357237836 1.0439812142 -0.025118867187 -0.01055554416 1.0486827993 -0.027994994142
          -0.011076442483 1.0497092919 -0.030458133115 -0.010971262933 1.0488758925 -0.030033215184
          -0.011112616226 1.0475392283 -0.028771452025 -0.011168112537 1.0467297604 -0.029227244669
          -0.011540517311 1.0470882334 -0.029867307266 -0.011311307734 1.0468993442 -0.030403970007
          -0.011773911756 1.0448454813 -0.027940859889 -0.015523315116 1.0387763073 -0.025271078179
          -0.0091464282462 1.0490843534 -0.029622088342 -0.010360108856 1.0495617901 -0.029875899008
          -0.010407325697 1.0475837063 -0.028427291194 -0.010601916824 1.0467272668 -0.028135374862
          -0.010292528992 1.0462875995 -0.028129745272 -0.010682099144 1.0460853813 -0.028328746207
          -0.010706142998 1.0452535284 -0.028257706677 -0.010900150591 1.0444438527 -0.028094637063
          -0.010933619932 1.045570817 -0.029851265236 -0.012232172304 1.044166339 -0.029436410731
          -0.010317143331 1.0483622053 -0.028864593699 -0.009189322235 1.0487013494 -0.02983747653
          -0.0094177855461 1.0477550475 -0.029431402113 -0.009859933272 1.0476628863 -0.029592699564
          -0.010194160594 1.0479903581 -0.030084307742 -0.0099880381784 1.0473253965 -0.03022032335
          -0.010453701984 1.0459609925 -0.029619220061 -0.010758012669 1.0448871011 -0.029390618702
          -0.01110005333 1.0447924176 -0.029885145084 -0.0096621216582 1.0432878237 -0.028598356244
          -0.011062851549 1.048014193 -0.028190914184 -0.0093873953394 1.048311982 -0.030841071955
          -0.0090185917458 1.0480392566 -0.030590172531 -0.0094567601544 1.0478338908 -0.03010861782
          -0.009438953516 1.0473402392 -0.030183005514 -0.0096233632258 1.0468901353 -0.029765121959
          -0.0097485073108 1.046265913 -0.030423796726 -0.01004722362 1.0451011712 -0.030565516142
          -0.0097721022825 1.044325886 -0.030819810175 -0.0079118160373 1.0429433835 -0.028078309198
          -0.011052842034 1.0481162489 -0.029032161159 -0.0092775822471 1.047756879 -0.030952980712
          -0.0094064916466 1.0478343259 -0.030622529157 -0.0094398260412 1.0472872466 -0.030561530526
          -0.0089969591175 1.0477973373 -0.030532320674 -0.0086997928989 1.0465880803 -0.030573009499
          -0.0084594594931 1.0457804031 -0.03053005779 -0.0085533496662 1.0449531682 -0.030654781856
          -0.0087509346272 1.0437384257 -0.030940985046 -0.0069087238008 1.042993875 -0.02895764335
          -0.010286196881 1.0471683656 -0.030612096816 -0.0092310668401 1.0476345252 -0.03175044098
          -0.0095808743515 1.0475558677 -0.031526841537 -0.0095584691721 1.047410754 -0.031732877277
          -0.010759450104 1.0474250101 -0.032441595296 -0.0058141681295 1.0466156311 -0.032535996553
          -0.0071906954071 1.0457407072 -0.031574100641 -0.0071990577058 1.0446832996 -0.031596512086
          -0.0076901565077 1.0437422046 -0.031678573403 -0.0064909394736 1.0420324919 -0.030495917907
          -0.010230994097 1.0487465545 -0.030554762738 -0.0094684472421 1.0483234326 -0.0316152724
          -0.0091995568282 1.047046766 -0.032968816049 -0.0092605243174 1.0472573998 -0.033255167792
          -0.0086750520563 1.0474568311 -0.032868415459 -0.0068745379169 1.046908509 -0.032958046914
          -0.0063710618393 1.045550028 -0.03310777061 -0.0064840027782 1.0442327589 -0.032888717066
          -0.0063357691096 1.0443920777 -0.031557357937 -0.005503551765 1.0436740636 -0.030509156664
          -0.011921843494 1.0475403957 -0.03115258358 -0.010963591713 1.0477487955 -0.031803545576
          -0.0090831781127 1.0477491786 -0.033284823299 -0.0076767819605 1.0470288295 -0.033479222544
          -0.0091809079044 1.0474836445 -0.033845940798 -0.0053217372226 1.0468984041 -0.033785989326
          -0.0067161825135 1.0453014203 -0.033483747366 -0.0055076977087 1.0449178686 -0.033176231815
          -0.0037883037458 1.0438059812 -0.03179224597 -0.0025583074011 1.0424093539 -0.03099724745
          -0.010895445928 1.0479946077 -0.033406566848 -0.0035529358952 1.0500434364 -0.03590379044
          -0.009703690514 1.0472672092 -0.035023171257 -0.0049424126122 1.048225071 -0.033671852996
          -0.0081375357775 1.0433695338 -0.035487830358 -0.0053823140797 1.043085704 -0.035782151939
          -0.0084144834721 1.0466609144 -0.033785793874 -0.0036758974508 1.0444955409 -0.034986454615
          -0.0099206409981 1.0461366318 -0.03595938091 -0.0027069717254 1.0429732923 -0.033464649676
          0.00096248837012 1.05594102 -0.034207282944 -0.0085957822126 1.0440403147 -0.039219014908
          -0.0093054588615 1.0469297524 -0.0341067107 -0.0087199608364 1.0457130461 -0.036355643244
          -0.006799092712 1.0498403584 -0.028575119439 -0.0050692313247 1.0497728494 -0.028386992537
          -0.0034468684369 1.0439495935 -0.036482986856 -0.0030064707809 1.0441465446 -0.033992208204
          -0.0036754229721 1.0400317742 -0.039157557075 -0.013069944164 1.0509566077 -0.033970346834
          -0.0099501249946 1.0489546831 -0.027969547397 -0.010398280727 1.0477339926 -0.027161101491
          -0.011136046115 1.0486133503 -0.027941222969 -0.011089296156 1.0477348001 -0.027025139358
          -0.010882567423 1.0468887952 -0.027032132629 -0.011372801686 1.04663424 -0.027140944141
          -0.011356064764 1.0462213282 -0.027163562429 -0.011340598167 1.0455874493 -0.027607857646
          -0.011975960165 1.043780425 -0.027033552173 -0.012482113701 1.0439494634 -0.027773089366
          -0.0095652266496 1.0500870839 -0.030577679006 -0.010674126323 1.0486065234 -0.029183592922
          -0.0095218651774 1.0481606754 -0.029427795618 -0.010596301924 1.0481381028 -0.028748484298
          -0.010669287993 1.0477455999 -0.028837832547 -0.010726827574 1.0472645729 -0.028855612076
          -0.01063823042 1.0465313865 -0.028707632586 -0.011826550074 1.0452898449 -0.0293761794
          -0.010649267024 1.0446553365 -0.029125360459 -0.01177409118 1.0451858897 -0.030778963684
          -0.0098130409778 1.0490507785 -0.029873448306 -0.0096786905138 1.0486652817 -0.02951015535
          -0.0096804180967 1.0487427105 -0.0299659515 -0.009983916732 1.0484067779 -0.029544467561
          -0.010000773114 1.047971279 -0.029562989305 -0.010135282152 1.0474214513 -0.029558051873
          -0.010208402187 1.0467527537 -0.029574349992 -0.010518343893 1.0459811117 -0.030027327768
          -0.010511746844 1.0447876696 -0.029429189842 -0.010344106492 1.0439655666 -0.029796198437
          -0.01032572294 1.0495171291 -0.0301678751 -0.0094155163067 1.0486859204 -0.030589475195
          -0.0097538576583 1.0485098779 -0.02996676444 -0.0095351272068 1.0482728291 -0.030286273641
          -0.0095272222787 1.0479146575 -0.030089812271 -0.0095761657859 1.0473469497 -0.030064156132
          -0.0095750764288 1.0466054531 -0.030328003963 -0.0093931781297 1.0456928767 -0.029963322295
          -0.0096597638131 1.0447789155 -0.030514655147 -0.008755304448 1.0445332838 -0.030068242063
          -0.0096975780518 1.0490461227 -0.030546795605 -0.0091106759837 1.0488344708 -0.031455756107
          -0.0092845585349 1.0484539987 -0.031065486854 -0.0092444812932 1.0481723747 -0.030626275871
          -0.009077450526 1.0478353803 -0.030627270837 -0.0089523952962 1.0472736352 -0.030539145629
          -0.008786345928 1.0466195079 -0.030458510694 -0.0087079692915 1.0456863131 -0.031034941278
          -0.008810950991 1.0449172087 -0.031403788949 -0.0082034651616 1.0439949083 -0.030428333401
          -0.0089967830807 1.0498197787 -0.031215769341 -0.0088829362208 1.0489786978 -0.031706486269
          -0.0091942226177 1.0484139778 -0.031573312367 -0.0083674654869 1.0483255253 -0.031600906825
          -0.0094108741249 1.0477337561 -0.032173760219 -0.0073318515574 1.0471398385 -0.03214168876
          -0.0084624983778 1.0466246796 -0.031644410063 -0.0076865633567 1.0456070026 -0.031517360393
          -0.0079777838538 1.0450141464 -0.031631087733 -0.0077687575368 1.0447055914 -0.031107068447
          -0.0093344701846 1.0495789235 -0.031341073936 -0.008454815418 1.0489591441 -0.032469755034
          -0.0087051632115 1.0484148273 -0.032340412901 -0.0095239761083 1.04815428 -0.032592526268
          -0.0090917109233 1.047847418 -0.032830180617 -0.0065389783121 1.0475811644 -0.032829176265
          -0.0062063803343 1.0465020228 -0.032509109346 -0.0070254264948 1.0455979441 -0.032305477885
          -0.0072775201364 1.0450145701 -0.032417278795 -0.0064367150679 1.0445680938 -0.031288148111
          -0.0090581177175 1.0489748368 -0.032868952999 -0.0082160096524 1.0499115952 -0.032390580664
          -0.0091170306023 1.0483787983 -0.03323224421 -0.0074887693367 1.0479160315 -0.033737931961
          -0.0073590885612 1.0482071149 -0.032183324787 -0.0072458140562 1.0476569047 -0.032115189991
          -0.0071007360908 1.0462800293 -0.033771785648 -0.0054663761377 1.0456435186 -0.033186785347
          -0.0063424714465 1.0460380846 -0.032294282946 -0.0056212711247 1.0438834466 -0.032833836536
          -0.0077017893848 1.050168756 -0.033916789135 -0.0087380587961 1.0495540707 -0.033584267186
          -0.0082917772071 1.0481087541 -0.034810744749 -0.0089428363785 1.0478344331 -0.035002040747
          -0.0090114811618 1.0484263461 -0.034550942923 -0.0044626870605 1.047790775 -0.034585897629
          -0.004581577662 1.0461140272 -0.034981381324 -0.0051532805382 1.0452993341 -0.034794415496
          -0.0046385266002 1.045581684 -0.033501344599 -0.0056356726876 1.0449414923 -0.033810750393
          -0.0043344481467 1.0545152979 -0.031504191 -0.0051864007836 1.0494085026 -0.036088790392
          -0.008617109873 1.0477804508 -0.035101384349 -0.005656492274 1.0474274607 -0.033935352149
          -0.0081578978604 1.0494606596 -0.035319293458 -0.0041803389706 1.0490441072 -0.035268745118
          -0.0067066720798 1.0456313273 -0.034161077732 -0.0035680420124 1.0449417262 -0.035275134069
          -0.0069753628386 1.0456056106 -0.035881624075 -0.0079765335931 1.0495888568 -0.031456725299
          -0.010154194841 1.0495501924 -0.027848017716 -0.010522034575 1.0495041272 -0.028237150573
          -0.011060586178 1.049803888 -0.02854560496 -0.010933479369 1.0495202204 -0.029019160863
          -0.011223866461 1.0480846492 -0.027638869561 -0.011379390539 1.0476828546 -0.028026822581
          -0.011385387849 1.0478943175 -0.029022786126 -0.011336067765 1.0469829998 -0.028502052191
          -0.011812592119 1.0455725366 -0.02819557662 -0.01241337467 1.0443206351 -0.027806650904
          -0.010139122821 1.0501080555 -0.029636778838 -0.01068880686 1.0503277483 -0.029226375155
          -0.010039361198 1.0485005298 -0.028537420131 -0.010519467246 1.0490204218 -0.028791782546
          -0.010599937584 1.048547179 -0.028783907357 -0.010701465221 1.04794802 -0.028758375963
          -0.010770856882 1.0474692071 -0.028864984828 -0.011255388478 1.0457473951 -0.028498419082
          -0.010610431191 1.0464468992 -0.029195658498 -0.011206219406 1.0450730007 -0.029578939899
          -0.010440487053 1.0499566645 -0.028936686466 -0.0095833151905 1.0495028686 -0.029759607816
          -0.01013726328 1.0492653124 -0.029471982232 -0.010089237729 1.0488816253 -0.02941041597
          -0.010051514605 1.0486177766 -0.029541269821 -0.010123316288 1.0480032567 -0.029600513206
          -0.010144450601 1.0472667055 -0.029400522617 -0.010112439531 1.0464905301 -0.029478868584
          -0.010622316145 1.0456134481 -0.029716512604 -0.0097064721844 1.044927711 -0.028890560541
          -0.009773533373 1.0498419717 -0.03013847775 -0.0093866976139 1.049729716 -0.030520090411
          -0.0097225502118 1.0492682614 -0.030135634333 -0.0096461411274 1.0488457001 -0.030196201671
          -0.0094927403752 1.0485887929 -0.030142000036 -0.0095311329121 1.0479587987 -0.030184416762
          -0.0094407476799 1.0471865744 -0.030200995595 -0.0093624751452 1.0464850404 -0.030122678973
          -0.0096412420621 1.0458012731 -0.030419328165 -0.0092944656638 1.0448807413 -0.030061810695
          -0.0097133730868 1.0499441443 -0.030436239861 -0.0092450388894 1.0497136485 -0.031033301702
          -0.0091922513042 1.0492211807 -0.030970717841 -0.0091902137418 1.0489279835 -0.030952441179
          -0.0090302569992 1.0485518965 -0.030856376357 -0.0089308263113 1.0480316843 -0.030825692842
          -0.0087985009633 1.0472698575 -0.030934372313 -0.0087883546802 1.0464253311 -0.030958034258
          -0.0087170914143 1.0457927557 -0.03095249693 -0.0082832733363 1.0449200587 -0.030364338943
          -0.0092355894803 1.0503437961 -0.031007215237 -0.0092125195858 1.0495792163 -0.031572545345
          -0.0088612213038 1.0492412674 -0.031685140629 -0.0089675274721 1.0489085165 -0.031730976507
          -0.0085255221881 1.0485552554 -0.031615528481 -0.0084309056764 1.0480586516 -0.031538061992
          -0.0078671081579 1.0471116625 -0.031690356273 -0.0080220057002 1.0464522335 -0.031660027676
          -0.0076920459342 1.0456500732 -0.031546048582 -0.0075727892682 1.0453348464 -0.030834649478
          -0.0080740541386 1.0503045898 -0.032883729545 -0.0081107757206 1.049663744 -0.032691578467
          -0.0077872162728 1.0494423072 -0.032560658454 -0.0082650844334 1.0488631407 -0.032277346012
          -0.008870400149 1.0486104199 -0.032664254502 -0.0069377935031 1.0481058053 -0.0326260781
          -0.0074697631556 1.047168519 -0.03232486825 -0.0079168230149 1.0466400237 -0.032541130605
          -0.0076370083555 1.0457343724 -0.032605355651 -0.007612951414 1.045238149 -0.032772499972
          -0.0087829207911 1.0502033857 -0.032217171356 -0.0073746794507 1.0500149074 -0.033302517715
          -0.0082550177004 1.0492931128 -0.033344227351 -0.008439530083 1.0490253661 -0.033207770799
          -0.0081552482148 1.0484186128 -0.033716986521 -0.0064511933813 1.0480255334 -0.033490816117
          -0.0062607308508 1.0473230197 -0.033213541219 -0.006389376011 1.0464411645 -0.033348598795
          -0.00721211747 1.0460176614 -0.033194153528 -0.0058679485097 1.0452085368 -0.032086109734
          -0.0082285876519 1.0499887859 -0.033846165056 -0.0080052443151 1.0495986032 -0.034029506366
          -0.0080376739785 1.0490571389 -0.034390311932 -0.0084703010318 1.0488263402 -0.034532998579
          -0.0090454102543 1.048412969 -0.035106369126 -0.0045237715933 1.0477927451 -0.035161346898
          -0.0050653401015 1.0471690968 -0.034512724627 -0.0054546248626 1.046283273 -0.034346084584
          -0.0054747727496 1.0456289261 -0.033958933867 -0.0051496573471 1.0447621753 -0.033724025192
          -0.0089207463098 1.0485691322 -0.035619511223 -0.0048758226803 1.050736405 -0.035302741398
          -0.0088515464699 1.0477776845 -0.036507216573 -0.0078166400108 1.0484396015 -0.036014049312
          -0.0098536947824 1.0499601426 -0.034873976187 -0.0025251507038 1.0492997403 -0.034908342704
          -0.004542873163 1.0467758812 -0.036028587922 -0.0034694167542 1.0449767458 -0.036361942368
          -0.0074012269489 1.0468245014 -0.035204808842 -0.0036854842296 1.0436373219 -0.035515857095
          -0.011446831405 1.0513147536 -0.027492144591 -0.0097057962339 1.0498161825 -0.028022723756
          -0.010933074048 1.0496177609 -0.027554121545 -0.011275658341 1.0494384854 -0.027952975096
          -0.011222200527 1.0491377536 -0.028361843468 -0.011331728431 1.0485453386 -0.028205563473
          -0.01108746207 1.0478961848 -0.028005576406 -0.011611825912 1.046809723 -0.027527791079
          -0.012776834103 1.0458373484 -0.027920637255 -0.011053091749 1.0461990159 -0.027428150136
          -0.0098250826174 1.0495166677 -0.028399704608 -0.010313649119 1.0503836514 -0.029147002858
          -0.010564049411 1.0501479494 -0.028833163791 -0.010500788228 1.0494610671 -0.028660570459
          -0.010611625061 1.0490658311 -0.028696366555 -0.010683658115 1.0485702794 -0.028693829799
          -0.010839816476 1.047712283 -0.028614367437 -0.010746171302 1.047423661 -0.028839566612
          -0.011013388474 1.0464426045 -0.029127688188 -0.01158696047 1.0444631152 -0.02826616074
          -0.010589659786 1.0513511592 -0.02953590411 -0.010087313823 1.0504949783 -0.029673618158
          -0.010137618801 1.0500528026 -0.029508456374 -0.010027155222 1.0496761071 -0.029546183961
          -0.010093143251 1.0492436082 -0.029465316477 -0.010130499101 1.0486667308 -0.029444075165
          -0.010194035175 1.0480011341 -0.029510835994 -0.010056873486 1.0472452075 -0.029518502257
          -0.01010146682 1.0465958632 -0.02961974086 -0.009611160054 1.046285905 -0.029435507045
          -0.0093167112846 1.050577909 -0.030338999615 -0.0097982860644 1.0503514597 -0.030260473506
          -0.0096409775191 1.0499857103 -0.030279342028 -0.0095913558599 1.0496444336 -0.030272273762
          -0.0095749287243 1.0493179545 -0.030204496884 -0.0095685692414 1.0487829614 -0.030229056773
          -0.0094819223534 1.0479943253 -0.030211796021 -0.0094184067335 1.0471771798 -0.030255866827
          -0.0092657177562 1.0464330812 -0.03019704728 -0.0096461960624 1.0455872934 -0.030195731381
          -0.0091905562084 1.0506664764 -0.030980526134 -0.008974205049 1.0504030921 -0.031155732275
          -0.0090550895726 1.0500918073 -0.031139197538 -0.0091274321523 1.0496502662 -0.030948882662
          -0.0090555040931 1.0492355969 -0.030960145519 -0.0089659776622 1.0487042346 -0.030885817772
          -0.0088439970013 1.0479459512 -0.030944296454 -0.0088682825146 1.0472967775 -0.031102221875
          -0.0089952874415 1.0464842516 -0.031091029082 -0.0087673908461 1.045600269 -0.030892048421
          -0.0089077373342 1.050693048 -0.031653162212 -0.0089822245552 1.0503277574 -0.031664749339