<?xml version="1.0"?>
<VTKFile type="UnstructuredGrid" version="0.1" byte_order="LittleEndian" compressor="vtkZLibDataCompressor">
  <UnstructuredGrid>
    <FieldData>
      <DataArray type="Float64" Name="TIME" NumberOfTuples="1" format="ascii" RangeMin="0.25030832244" RangeMax="0.25030832244">
        0.25030832244
      </DataArray>
    </FieldData>
    <Piece NumberOfPoints="1000" NumberOfCells="0">
      <PointData>
        <DataArray type="Float64" Name="Damage" format="ascii" RangeMin="0" RangeMax="0.49719101124">
          0 0 0 0 0 0
          0 0 0 0 0 0.027932960894
          0 0 0 0 0 0
          0.027932960894 0 0 0.055084745763 0.071428571429 0.040345821326
          0.014164305949 0.012987012987 0.040345821326 0.071428571429 0.055084745763 0
          0 0.067669172932 0.11239193084 0.1074168798 0.037688442211 0.034562211982
          0.1074168798 0.11239193084 0.067669172932 0 0 0.074349442379
          0.16147308782 0.16834170854 0.12376237624 0.11286681716 0.16834170854 0.16147308782
          0.074349442379 0 0 0.084459459459 0.2 0.25806451613
          0.33860045147 0.39211618257 0.25806451613 0.2 0.084459459459 0
          0 0.093984962406 0.25360230548 0.36061381074 0.41959798995 0.46774193548
          0.36061381074 0.25360230548 0.093984962406 0 0 0.10593220339
          0.31493506494 0.40057636888 0.4447592068 0.49090909091 0.40057636888 0.31493506494
          0.10593220339 0 0 0.16759776536 0.3686440678 0.43984962406
          0.44609665428 0.49662162162 0.43984962406 0.3686440678 0.16759776536 0
          0 0.1677852349 0.36734693878 0.43891402715 0.44642857143 0.49593495935
          0.43891402715 0.36734693878 0.1677852349 0 0 0
          0 0 0 0 0 0
          0 0 0 0.027906976744 0 0
          0 0 0 0 0.027906976744 0
          0 0.056338028169 0.072776280323 0.040669856459 0.014117647059 0.012931034483
          0.040669856459 0.072776280323 0.056338028169 0 0 0.06875
          0.11483253589 0.10828025478 0.0375782881 0.034416826004 0.10828025478 0.11483253589
          0.06875 0 0 0.074303405573 0.16235294118 0.16910229645
          0.12371134021 0.11257035647 0.16910229645 0.16235294118 0.074303405573 0
          0 0.084269662921 0.20043103448 0.25812619503 0.33771106942 0.39242685026
          0.25812619503 0.20043103448 0.084269662921 0 0 0.09375
          0.25358851675 0.36093418259 0.41962421712 0.46845124283 0.36093418259 0.25358851675
          0.09375 0 0 0.10563380282 0.3153638814 0.4019138756
          0.44470588235 0.49137931034 0.4019138756 0.3153638814 0.10563380282 0
          0 0.16744186047 0.36971830986 0.440625 0.44582043344 0.49719101124
          0.440625 0.36971830986 0.16744186047 0 0 0.16759776536
          0.3686440678 0.43984962406 0.44609665428 0.49662162162 0.43984962406 0.3686440678
          0.16759776536 0 0 0 0 0
          0 0 0 0 0 0
          0 0.024647887324 0 0 0 0
          0 0 0.024647887324 0 0 0.051212938005
          0.06875 0.038817005545 0.012635379061 0.011666666667 0.038817005545 0.06875
          0.051212938005 0 0 0.064593301435 0.10905730129 0.10491803279
          0.036858974359 0.034023668639 0.10491803279 0.10905730129 0.064593301435 0
          0 0.070588235294 0.15523465704 0.16506410256 0.12283464567 0.11271676301
          0.16506410256 0.15523465704 0.070588235294 0 0 0.081896551724
          0.19333333333 0.25443786982 0.33959537572 0.38985313752 0.25443786982 0.19333333333
          0.081896551724 0 0 0.093301435407 0.24768946396 0.35573770492
          0.41987179487 0.46449704142 0.35573770492 0.24768946396 0.093301435407 0
          0 0.10781671159 0.30833333333 0.39556377079 0.4440433213 0.48666666667
          0.39556377079 0.30833333333 0.10781671159 0 0 0.16197183099
          0.35579514825 0.43062200957 0.44470588235 0.49137931034 0.43062200957 0.35579514825
          0.16197183099 0 0 0.16101694915 0.3538961039 0.42939481268
          0.4447592068 0.49090909091 0.42939481268 0.3538961039 0.16101694915 0
          0 0 0 0 0 0
          0 0 0 0 0 0.025
          0 0 0 0 0 0
          0.025 0 0 0.05023923445 0.068391866913 0.039344262295
          0.012820512821 0.011834319527 0.039344262295 0.068391866913 0.05023923445 0
          0 0.063694267516 0.10819672131 0.10465116279 0.036984352774 0.034120734908
          0.10465116279 0.10819672131 0.063694267516 0 0 0.070981210856
          0.15544871795 0.16500711238 0.12290502793 0.11282051282 0.16500711238 0.15544871795
          0.070981210856 0 0 0.082217973231 0.19378698225 0.25459317585
          0.33974358974 0.38981042654 0.25459317585 0.19378698225 0.082217973231 0
          0 0.093418259023 0.24918032787 0.35610465116 0.41963015647 0.46456692913
          0.35610465116 0.24918032787 0.093418259023 0 0 0.10765550239
          0.30868761553 0.39508196721 0.44391025641 0.48668639053 0.39508196721 0.30868761553
          0.10765550239 0 0 0.1625 0.35645933014 0.43099787686
          0.44467640919 0.4913957935 0.43099787686 0.35645933014 0.1625 0
          0 0.16165413534 0.35446685879 0.42966751918 0.44472361809 0.49078341014
          0.42966751918 0.35446685879 0.16165413534 0 0 0
          0 0 0 0 0 0
          0 0 0 0.02786377709 0 0
          0 0 0 0 0.02786377709 0
          0 0.054117647059 0.070397111913 0.040064102564 0.014173228346 0.013005780347
          0.040064102564 0.070397111913 0.054117647059 0 0 0.066805845511
          0.11057692308 0.106685633 0.037709497207 0.034615384615 0.106685633 0.11057692308
          0.066805845511 0 0 0.074226804124 0.16062992126 0.16759776536
          0.12362637363 0.11292346299 0.16759776536 0.16062992126 0.074226804124 0
          0 0.084427767355 0.19942196532 0.25769230769 0.33877038896 0.39145496536
          0.25769230769 0.19942196532 0.084427767355 0 0 0.093945720251
          0.25320512821 0.35988620199 0.41899441341 0.46666666667 0.35988620199 0.25320512821
          0.093945720251 0 0 0.10588235294 0.31407942238 0.39903846154
          0.44409448819 0.48988439306 0.39903846154 0.31407942238 0.10588235294 0
          0 0.16718266254 0.36705882353 0.43841336117 0.44536082474 0.49530956848
          0.43841336117 0.36705882353 0.16718266254 0 0 0.16728624535
          0.36543909348 0.43718592965 0.44554455446 0.49435665914 0.43718592965 0.36543909348
          0.16728624535 0 0 0 0 0
          0 0 0 0 0 0
          0 0.025280898876 0 0 0 0
          0 0 0.025280898876 0 0 0.049568965517
          0.066666666667 0.038461538462 0.013005780347 0.012016021362 0.038461538462 0.066666666667
          0.049568965517 0 0 0.06309751434 0.1050295858 0.10367454068
          0.037179487179 0.034360189573 0.10367454068 0.1050295858 0.06309751434 0
          0 0.071294559099 0.15462427746 0.1641025641 0.12296110414 0.11316397229
          0.1641025641 0.15462427746 0.071294559099 0 0 0.082616179002
          0.19359145527 0.25473933649 0.34064665127 0.38930481283 0.25473933649 0.19359145527
          0.082616179002 0 0 0.093690248566 0.24852071006 0.35564304462
          0.41923076923 0.46327014218 0.35564304462 0.24852071006 0.093690248566 0
          0 0.10775862069 0.30833333333 0.39349112426 0.4436416185 0.48598130841
          0.39349112426 0.30833333333 0.10775862069 0 0 0.16292134831
          0.35560344828 0.43021032505 0.44465290807 0.49053356282 0.43021032505 0.35560344828
          0.16292134831 0 0 0.16216216216 0.35324675325 0.42857142857
          0.44469525959 0.48962655602 0.42857142857 0.35324675325 0.16216216216 0
          0 0 0 0 0 0
          0 0 0 0 0 0.025
          0 0 0 0 0 0
          0.025 0 0 0.05023923445 0.068391866913 0.039344262295
          0.012820512821 0.011834319527 0.039344262295 0.068391866913 0.05023923445 0
          0 0.063694267516 0.10819672131 0.10465116279 0.036984352774 0.034120734908
          0.10465116279 0.10819672131 0.063694267516 0 0 0.070981210856
          0.15544871795 0.16500711238 0.12290502793 0.11282051282 0.16500711238 0.15544871795
          0.070981210856 0 0 0.082217973231 0.19378698225 0.25459317585
          0.33974358974 0.38981042654 0.25459317585 0.19378698225 0.082217973231 0
          0 0.093418259023 0.24918032787 0.35610465116 0.41963015647 0.46456692913
          0.35610465116 0.24918032787 0.093418259023 0 0 0.10765550239
          0.30868761553 0.39508196721 0.44391025641 0.48668639053 0.39508196721 0.30868761553
          0.10765550239 0 0 0.1625 0.35645933014 0.43099787686
          0.44467640919 0.4913957935 0.43099787686 0.35645933014 0.1625 0
          0 0.16165413534 0.35446685879 0.42966751918 0.44472361809 0.49078341014
          0.42966751918 0.35446685879 0.16165413534 0 0 0
          0 0 0 0 0 0
          0 0 0 0.024647887324 0 0
          0 0 0 0 0.024647887324 0
          0 0.051212938005 0.06875 0.038817005545 0.012635379061 0.011666666667
          0.038817005545 0.06875 0.051212938005 0 0 0.064593301435
          0.10905730129 0.10491803279 0.036858974359 0.034023668639 0.10491803279 0.10905730129
          0.064593301435 0 0 0.070588235294 0.15523465704 0.16506410256
          0.12283464567 0.11271676301 0.16506410256 0.15523465704 0.070588235294 0
          0 0.081896551724 0.19333333333 0.25443786982 0.33959537572 0.38985313752
          0.25443786982 0.19333333333 0.081896551724 0 0 0.093301435407
          0.24768946396 0.35573770492 0.41987179487 0.46449704142 0.35573770492 0.24768946396
          0.093301435407 0 0 0.10781671159 0.30833333333 0.39556377079
          0.4440433213 0.48666666667 0.39556377079 0.30833333333 0.10781671159 0
          0 0.16197183099 0.35579514825 0.43062200957 0.44470588235 0.49137931034
          0.43062200957 0.35579514825 0.16197183099 0 0 0.16101694915
          0.3538961039 0.42939481268 0.4447592068 0.49090909091 0.42939481268 0.3538961039
          0.16101694915 0 0 0 0 0
          0 0 0 0 0 0
          0 0.027906976744 0 0 0 0
          0 0 0.027906976744 0 0 0.056338028169
          0.072776280323 0.040669856459 0.014117647059 0.012931034483 0.040669856459 0.072776280323
          0.056338028169 0 0 0.06875 0.11483253589 0.10828025478
          0.0375782881 0.034416826004 0.10828025478 0.11483253589 0.06875 0
          0 0.074303405573 0.16235294118 0.16910229645 0.12371134021 0.11257035647
          0.16910229645 0.16235294118 0.074303405573 0 0 0.084269662921
          0.20043103448 0.25812619503 0.33771106942 0.39242685026 0.25812619503 0.20043103448
          0.084269662921 0 0 0.09375 0.25358851675 0.36093418259
          0.41962421712 0.46845124283 0.36093418259 0.25358851675 0.09375 0
          0 0.10563380282 0.3153638814 0.4019138756 0.44470588235 0.49137931034
          0.4019138756 0.3153638814 0.10563380282 0 0 0.16744186047
          0.36971830986 0.440625 0.44582043344 0.49719101124 0.440625 0.36971830986
          0.16744186047 0 0 0.16759776536 0.3686440678 0.43984962406
          0.44609665428 0.49662162162 0.43984962406 0.3686440678 0.16759776536 0
          0 0 0 0 0 0
          0 0 0 0 0 0.027932960894
          0 0 0 0 0 0
          0.027932960894 0 0 0.055084745763 0.071428571429 0.040345821326
          0.014164305949 0.012987012987 0.040345821326 0.071428571429 0.055084745763 0
          0 0.067669172932 0.11239193084 0.1074168798 0.037688442211 0.034562211982
          0.1074168798 0.11239193084 0.067669172932 0 0 0.074349442379
          0.16147308782 0.16834170854 0.12376237624 0.11286681716 0.16834170854 0.16147308782
          0.074349442379 0 0 0.084459459459 0.2 0.25806451613
          0.33860045147 0.39211618257 0.25806451613 0.2 0.084459459459 0
          0 0.093984962406 0.25360230548 0.36061381074 0.41959798995 0.46774193548
          0.36061381074 0.25360230548 0.093984962406 0 0 0.10593220339
          0.31493506494 0.40057636888 0.4447592068 0.49090909091 0.40057636888 0.31493506494
          0.10593220339 0 0 0.16759776536 0.3686440678 0.43984962406
          0.44609665428 0.49662162162 0.43984962406 0.3686440678 0.16759776536 0
          0 0.1677852349 0.36734693878 0.43891402715 0.44642857143 0.49593495935
          0.43891402715 0.36734693878 0.1677852349 0
        </DataArray>
        <DataArray type="Float64" Name="Displacement" NumberOfComponents="3" format="ascii" RangeMin="1.582167339" RangeMax="1.5971465368">
          -0.0024024773101 1.5882227081 -0.011376248322 -0.00511914699 1.5897358154 -0.014436022208
          -0.0051342075031 1.5903984288 -0.014626158687 -0.0053419390262 1.5887527766 -0.012994067397
          -0.0051834474791 1.5885406972 -0.013151301812 -0.0050817424572 1.5888332461 -0.013534102156
          -0.0049817883595 1.5879449852 -0.013021505415 -0.0051347772637 1.5890059518 -0.014560464626
          -0.0053266900819 1.5878492587 -0.014371602968 -0.0079688873057 1.5856882886 -0.011394157114
          -0.005742630933 1.589538753 -0.013078070954 -0.0033615776832 1.5871681328 -0.01326316707
          -0.0047731931306 1.5878271935 -0.012483601336 -0.0046316081619 1.587261234 -0.012290304953
          -0.0050337870101 1.587508778 -0.012404917325 -0.0048175643854 1.5872226407 -0.012258304685
          -0.0051702364951 1.5866388407 -0.012435936397 -0.0049848365103 1.5862897192 -0.012356731297
          -0.0064389906967 1.5853970335 -0.013287911151 -0.0040770061612 1.5870828272 -0.012890597902
          -0.0041641217064 1.587690957 -0.013368432861 -0.0052386797827 1.5885779593 -0.013012352894
          -0.0048758501559 1.5885143277 -0.013349653668 -0.0044851836575 1.5882054083 -0.013580340012
          -0.0045849509461 1.5885151366 -0.013961222542 -0.0045603298892 1.5880028362 -0.013791982954
          -0.0048169201805 1.5873198755 -0.013521861594 -0.0044184854506 1.5871189768 -0.013323961737
          -0.0040315327075 1.5866795695 -0.013039785079 -0.0051072703943 1.5853985951 -0.013424819358
          -0.0047878916007 1.5885342058 -0.013703949548 -0.0049850471943 1.5887553198 -0.014302096505
          -0.004392635304 1.5881711453 -0.013999299028 -0.0046575913346 1.5878806703 -0.013876014794
          -0.0043865512311 1.5880781059 -0.01394788847 -0.0043718932909 1.587801041 -0.014023207929
          -0.0038860416181 1.5869067682 -0.013695962588 -0.0042944536093 1.5868592327 -0.013967453953
          -0.0037765066112 1.5868217579 -0.01428054389 -0.0039944094708 1.5860734434 -0.013733022632
          -0.0044392749887 1.5891708981 -0.01456474343 -0.0039956658245 1.5884975612 -0.014603168195
          -0.0044615605805 1.588160333 -0.014533039873 -0.0042389845739 1.5883196615 -0.014430056658
          -0.0047753277109 1.5877670721 -0.014568241141 -0.0035975131345 1.587485134 -0.014380545359
          -0.0039590656468 1.5874105042 -0.014343352772 -0.0036944854202 1.5868551265 -0.014494591524
          -0.0042076949459 1.5866008588 -0.014594724305 -0.0037620558901 1.5867737432 -0.014566098456
          -0.0044861654696 1.5896146059 -0.014693613434 -0.0033906581573 1.5882907528 -0.015137525687
          -0.0043535295245 1.5881952687 -0.014797536534 -0.0046640052388 1.5881536829 -0.014534837945
          -0.007151313871 1.5875347225 -0.016490562135 -0.00035469622566 1.5872564006 -0.016510677663
          -0.0030001402677 1.5873222172 -0.014459270043 -0.0033262422529 1.5868283366 -0.014737620418
          -0.0043013746248 1.586414059 -0.015111297139 -0.0031419178416 1.5871810955 -0.014652638293
          -0.0053387632804 1.5885653699 -0.014124327756 -0.0044622226922 1.5885812253 -0.014624714971
          -0.0045479934267 1.5878574232 -0.01543029873 -0.0067300113154 1.5883720752 -0.015432896472
          -0.0066106896043 1.5875047706 -0.017128121827 -0.00044053721069 1.5872122578 -0.017106410862
          -0.00036587399896 1.5875169808 -0.015406468342 -0.0025773065154 1.5864596604 -0.015391496855
          -0.0027099429089 1.5866344214 -0.014667217597 -0.0016682917023 1.5861196246 -0.014002324703
          -0.0053641789401 1.5889885132 -0.013792618416 -0.0040418918436 1.5887413289 -0.015057669585
          -0.0039851665271 1.5893824744 -0.014659846608 0.00048314448785 1.5894444323 -0.013429762295
          -0.0031219240131 1.5877840409 -0.01547382457 -0.0033271715466 1.5875102564 -0.015547243754
          -0.0071063845913 1.5886370176 -0.013394571424 -0.0025860941791 1.5880031908 -0.014653867704
          -0.0024173367956 1.5868299406 -0.014961396189 -0.0012786907078 1.5865894091 -0.013774198074
          -0.0063494482368 1.586573131 -0.014804838086 -0.006864334667 1.5894419125 -0.013663396348
          -0.0070676330351 1.5888154631 -0.014604781285 -0.0037014935816 1.5875244905 -0.016974269302
          -0.0066744701191 1.5881660138 -0.018625823953 0.00071113143559 1.5878530608 -0.018716784149
          -0.0024116272284 1.5866205061 -0.01696544456 0.0010357336051 1.5873500547 -0.01466001295
          0.0010616773911 1.5874532647 -0.013610249343 0.00033582632306 1.5841302763 -0.014867902115
          -0.0013685803618 1.5904971464 -0.017901714263 -0.007655770318 1.5891839697 -0.014248551105
          -0.007721162505 1.588122395 -0.016353728715 -0.0071460333145 1.584653734 -0.020560852849
          -0.0018522365372 1.5938998141 -0.010318506899 -0.0035984791526 1.5935863315 -0.010385065313
          0.0016673105543 1.5836727587 -0.020665142501 0.0023331407821 1.5867280645 -0.016310941967
          0.0022091983831 1.5869981744 -0.01444528995 -0.0042301042042 1.5877777453 -0.018234066116
          -0.0039494255597 1.5889944166 -0.013559072404 -0.0057098609803 1.5887567332 -0.011693172783
          -0.0056091368063 1.588386262 -0.011758990033 -0.0053181306105 1.5879878892 -0.012011745522
          -0.0052280017558 1.5879158487 -0.012218387696 -0.0050564250701 1.5875875633 -0.012138646782
          -0.0050617785773 1.5873342862 -0.012203019681 -0.0047310096831 1.586924921 -0.011669848966
          -0.0046619412466 1.5868361282 -0.011621109144 -0.0064595138904 1.5866646572 -0.01348211744
          -0.0047298507838 1.5878667379 -0.012074151949 -0.0050828334636 1.5886324716 -0.01294294929
          -0.0045397881225 1.5885654455 -0.013100525865 -0.0048117522509 1.5886913051 -0.013128993513
          -0.0048740009877 1.588118345 -0.012772388692 -0.004999791029 1.5879311588 -0.012788930463
          -0.0049782782326 1.5878449566 -0.013078274782 -0.0052895297314 1.587199396 -0.013110268443
          -0.0047428448554 1.5867460119 -0.012938538389 -0.0052062767163 1.5853578588 -0.012076856058
          -0.005345500902 1.5891941534 -0.013198112513 -0.0046957968208 1.5882170855 -0.013110555107
          -0.0049641676804 1.5884401811 -0.012917473467 -0.0045448630674 1.5885615828 -0.013533838163
          -0.0046247731276 1.5883651454 -0.013346725083 -0.0046163814968 1.5881050631 -0.013281845362
          -0.0047380077964 1.5877579516 -0.013547215171 -0.0043215272194 1.5871331037 -0.012949512016
          -0.004584204242 1.5863202708 -0.01304935071 -0.0038937839885 1.5867490378 -0.013161257051
          -0.0041708504617 1.5892459424 -0.013931440412 -0.0049667098066 1.5886356223 -0.013293731699
          -0.0045065667623 1.5886609421 -0.013790840425 -0.0042917769174 1.5888138487 -0.014176440326
          -0.0043436944617 1.588609529 -0.014115755606 -0.0043845494211 1.588294232 -0.013957180099
          -0.0044586645805 1.5880271334 -0.014189101881 -0.0042327691134 1.5873075023 -0.013760940507
          -0.0037606918083 1.5867426602 -0.013244378239 -0.004519061602 1.5868135228 -0.013931190656
          -0.0037499197805 1.58797099 -0.014281977329 -0.0048466335182 1.5891696172 -0.013591635472
          -0.0043783710833 1.5887163876 -0.014317437125 -0.0041485593799 1.5886315493 -0.014370010538
          -0.0041124796211 1.5885534201 -0.014355373749 -0.0040940504294 1.5882733723 -0.01434701313
          -0.0040466703329 1.5878144437 -0.014392247079 -0.0038136561965 1.5873628392 -0.014283242566
          -0.003329444206 1.5873186565 -0.013553176978 -0.0044112000077 1.5855188248 -0.01428025696
          -0.0044384427625 1.5882448605 -0.014624130782 -0.0048020706779 1.5887833986 -0.014002414184
          -0.0039430881553 1.5888032766 -0.014540070949 -0.0043372203571 1.5884757349 -0.014552805679
          -0.0046771136324 1.5884188314 -0.014802687594 -0.0029504317792 1.5881734294 -0.014818929127
          -0.0032948861606 1.5876333004 -0.014602503426 -0.0036948221943 1.5874450453 -0.014512897679
          -0.0028641533789 1.5869110984 -0.013954020749 -0.0031753574132 1.5858410451 -0.014626948075
          -0.00376125136 1.588906391 -0.015331739893 -0.0042326986437 1.5887317475 -0.014942572932
          -0.0040700394642 1.5887176961 -0.015084982427 -0.0034243469232 1.5885989665 -0.014886977762
          -0.0048094853192 1.5885726358 -0.015635132537 -0.0023041906984 1.588293734 -0.015611759107
          -0.0036644839213 1.5877767112 -0.014902679775 -0.0030499713982 1.5873597263 -0.015049822574
          -0.0028890507549 1.5868534848 -0.014895317855 -0.0033117254905 1.5865152804 -0.015335539586
          -0.0042687116487 1.5882394799 -0.015449361845 -0.004269506757 1.5887612366 -0.015235456611
          -0.0040407704214 1.5882752129 -0.015893566042 -0.0037426095707 1.5884871431 -0.015850754276
          -0.004503111036 1.5894304868 -0.014460111891 -0.0021318473914 1.5891326258 -0.014410920199
          -0.0028897529486 1.5876647324 -0.01581936956 -0.0025149890659 1.5869112782 -0.01587501515
          -0.0023099662093 1.5868814871 -0.015218257342 -0.0022875460689 1.5858501033 -0.015401827683
          -0.0050871563836 1.5895824265 -0.01448454717 -0.0053616604916 1.5885563941 -0.015011635536
          -0.003993910595 1.5899274755 -0.014911046968 -0.00396146621 1.5893810558 -0.015447348817
          -0.0023779857083 1.5877976522 -0.015718979439 -0.0037110560989 1.5874859926 -0.01568200761
          -0.0021477027523 1.588532236 -0.015402549612 -0.0020860146932 1.5885479988 -0.014900810716
          -0.00074162373841 1.5866637442 -0.015009297696 -0.00097887814515 1.5871458436 -0.014466346336
          -0.0052241359811 1.5863269735 -0.014624472595 -0.0054398537317 1.5846357896 -0.017605498177
          -0.0055734464951 1.5870856658 -0.016142111029 -0.0051841418581 1.5880059315 -0.01589252351
          -0.0067364861419 1.585634607 -0.018888601129 0.0012732382519 1.5852685566 -0.018961103157
          -0.0004089893934 1.5871705219 -0.015912489842 -6.5648012002e-06 1.5856982823 -0.016219644197
          -0.00011807253272 1.5827601729 -0.017677540389 -0.00041417359683 1.584120516 -0.014572919986
          -0.0053623888591 1.5894408218 -0.012071004445 -0.0056891158846 1.5899285705 -0.013158201125
          -0.004771151596 1.5889582457 -0.012647115111 -0.0051490380252 1.5886166905 -0.011986841375
          -0.0051890146664 1.5888202541 -0.012646208048 -0.005233535916 1.5888773885 -0.012957904533
          -0.0051873746313 1.5877993369 -0.011956003513 -0.0055634086188 1.5876355467 -0.012662329256
          -0.0046862600701 1.5880376159 -0.013140574172 -0.0050270542979 1.587026079 -0.012088475914
          -0.0054292555643 1.5897106462 -0.013143066692 -0.0048376271479 1.5894415682 -0.013191586914
          -0.0051203554947 1.5896616916 -0.013260441295 -0.0048781246693 1.5891349181 -0.013141951599
          -0.0048992850167 1.5888166126 -0.013040851695 -0.0049319416881 1.5885778784 -0.013047115776
          -0.004935369305 1.5883289149 -0.013122442423 -0.004700554746 1.5882925296 -0.013207219702
          -0.0049860590111 1.5875513491 -0.013185649493 -0.0043841918165 1.5872352714 -0.013112126854
          -0.0048628621327 1.5894342902 -0.013442686109 -0.0051992710354 1.5895424172 -0.013182817742
          -0.0046045518671 1.5892389631 -0.013473509127 -0.0046775443494 1.5889280359 -0.01351170881
          -0.0046641870421 1.5888046969 -0.013583099614 -0.004678914573 1.588628286 -0.013472494062
          -0.0045788531805 1.5881378319 -0.013468311397 -0.0046531430918 1.5879102614 -0.013420515248
          -0.00412904191 1.5876430425 -0.013168755626 -0.0044315526447 1.5870412738 -0.01341061411
          -0.0044741342838 1.589470276 -0.013952369748 -0.0043177528102 1.5892673479 -0.013778975779
          -0.0043712859311 1.5892119347 -0.013926984444 -0.0043969734937 1.5890024207 -0.013923219868
          -0.0043315710438 1.5889063494 -0.013937993592 -0.004375742871 1.5886236861 -0.013981444984
          -0.0043663767524 1.5882122174 -0.013895775948 -0.0043777111296 1.5878695219 -0.013865385119
          -0.004400188347 1.5874031414 -0.013748890412 -0.0042938802717 1.5870262071 -0.013934087021
          -0.0044217103189 1.5895646794 -0.014078710535 -0.0040483979771 1.5893562666 -0.014350654995
          -0.0041737340893 1.589138398 -0.014351554859 -0.0042378805048 1.5889164181 -0.014280080779
          -0.0042272001441 1.588802943 -0.01433684724 -0.0040534190714 1.5885281486 -0.014279651514
          -0.0039571053608 1.5881098056 -0.014296592066 -0.0040399108603 1.5877794247 -0.014330683407
          -0.0041228322104 1.5874683862 -0.01430982802 -0.0037935009876 1.5871333132 -0.014057716676
          -0.0044465967675 1.5896588009 -0.014113434948 -0.0042974479743 1.5891934463 -0.014535273541
          -0.0042037389427 1.5890664535 -0.014684499917 -0.0040056048253 1.5889203604 -0.01468578836
          -0.0038602763922 1.5888681888 -0.014622282805 -0.0038158972109 1.5886011603 -0.014616684042
          -0.0036579203016 1.5880958987 -0.014663393352 -0.0034586231223 1.5877100943 -0.01465865144
          -0.0033646754961 1.5872957004 -0.014496985279 -0.0032101424272 1.5872376442 -0.01408375545
          -0.0042905178621 1.5890019142 -0.015086527806 -0.004013353357 1.5891519653 -0.014997536653
          -0.0037225811638 1.5890832621 -0.015075918442 -0.0034631728352 1.5889657813 -0.014978698688
          -0.0042027230354 1.5889221026 -0.015135494803 -0.0029321017501 1.5886190033 -0.015162138216
          -0.0036451284496 1.5881499388 -0.014941987304 -0.0033987619472 1.5877386225 -0.015050166291
          -0.0030536752372 1.5872313751 -0.014952200183 -0.0028289432705 1.5865673114 -0.015073638659
          -0.0041490288379 1.589554088 -0.01473101028 -0.0041537429972 1.5889207488 -0.015488599439
          -0.0041305936319 1.5888851138 -0.015376343561 -0.0046574434972 1.5890115632 -0.015590465667
          -0.0047096703016 1.5890408732 -0.015536648845 -0.0018916853775 1.5887086259 -0.015567672781
          -0.0018956128618 1.5881960047 -0.015600097703 -0.0024341151065 1.5875346468 -0.015374698495
          -0.0023821479928 1.5869977037 -0.015461400036 -0.0024887417431 1.5871528473 -0.014735599842
          -0.0043814231797 1.5891707236 -0.015962483788 -0.0036271934569 1.5902500101 -0.014901954657
          -0.0041738549605 1.5883204881 -0.016090342623 -0.0055705367873 1.5883741755 -0.016786559861
          -0.0039227418634 1.589264421 -0.015442742277 -0.0021588405681 1.5889479645 -0.015433611415
          -0.0005385803959 1.5875452645 -0.016763654792 -0.0018726914167 1.5870110795 -0.016058743511
          -0.0024027021645 1.5883657927 -0.01488999301 -0.0016873390113 1.586773753 -0.015950411433
          -0.0073199522521 1.5843844451 -0.015844723023 8.555474157e-05 1.5903976307 -0.017291830135
          -0.0039309458259 1.5881638987 -0.017769777721 -0.0081192607546 1.5899102323 -0.016339362931
          -0.0031010560001 1.5872668937 -0.016024882294 -0.0023853050764 1.587020668 -0.016015976976
          0.0026849088665 1.5890789579 -0.016304021334 -0.0016101085415 1.5867931169 -0.017752156997
          -0.0056281475809 1.5885235791 -0.017213472933 0.0016582144344 1.5820875455 -0.015803076767
          -0.0036772789147 1.5887835632 -0.012598240299 -0.0053170843213 1.5898305998 -0.01300267926
          -0.005394758947 1.5900695037 -0.013007582699 -0.0052361695442 1.5896101857 -0.012746563715
          -0.0051640487954 1.5892241187 -0.012665022111 -0.0051260263722 1.5889338435 -0.01266938089
          -0.0051240662973 1.5887907139 -0.01273198091 -0.0049247095126 1.5887634842 -0.012988435957
          -0.0051029072853 1.587994717 -0.012943307458 -0.0067169061254 1.586342955 -0.012564668675
          -0.0050969883768 1.5902416792 -0.013024669072 -0.0054323974261 1.5903395392 -0.013096841404
          -0.0049755180703 1.5896240935 -0.013056365322 -0.0048843359503 1.5894049532 -0.013052397641
          -0.004907863357 1.5892652374 -0.013096887672 -0.0048860967326 1.5889718597 -0.013094711925
          -0.0049172238394 1.5885975418 -0.013053308149 -0.0048598751689 1.5882660118 -0.013033691134
          -0.0043465285864 1.588500808 -0.013070738424 -0.004666731209 1.5877958062 -0.013021451129
          -0.0043369475881 1.589199706 -0.013315655856 -0.0048034263222 1.5898788966 -0.013425560995
          -0.0046111078108 1.5895759233 -0.01341962552 -0.0046045736211 1.5894215809 -0.01348207677
          -0.004586880516 1.5892319154 -0.013511268466 -0.0046282436993 1.588979899 -0.013501888753
          -0.0046625584591 1.5886089222 -0.013483082506 -0.0046760007361 1.5882364781 -0.013398065423
          -0.0045118203358 1.5879730529 -0.013390400047 -0.0049760285886 1.5867710738 -0.013284443839
          -0.0046354994929 1.5898513019 -0.013654875478 -0.0045230797214 1.5897469695 -0.013817668973
          -0.0044026009162 1.5895891434 -0.013902601426 -0.0042994400786 1.5894136211 -0.013885294518
          -0.0043661525433 1.5892778008 -0.013981227406 -0.0043723329376 1.5889393026 -0.013933161863
          -0.0043610931459 1.588634507 -0.013923369883 -0.0043665516894 1.588243002 -0.013877812212
          -0.0042616392967 1.5878576708 -0.013795710799 -0.0041166489952 1.5874166218 -0.013613737202
          -0.0042956593991 1.5900490438 -0.014316218274 -0.0042816255654 1.5896980516 -0.014275983143
          -0.0042024255028 1.5895616189 -0.014227204159 -0.0041634593778 1.5893996941 -0.014268573964
          -0.0041539197895 1.5892291814 -0.014319233906 -0.0040742468982 1.5889259139 -0.014377005879
          -0.0040464815012 1.5885908882 -0.014238976823 -0.0040235232793 1.5881980068 -0.014193758789
          -0.0039297282492 1.5877943272 -0.014241915854 -0.00389936949 1.5876403433 -0.014280019682