<?xml version="1.0"?>
<VTKFile type="UnstructuredGrid" version="0.1" byte_order="LittleEndian" compressor="vtkZLibDataCompressor">
  <UnstructuredGrid>
    <FieldData>
      <DataArray type="Float64" Name="TIME" NumberOfTuples="1" format="ascii" RangeMin="0.25057683226" RangeMax="0.25057683226">
        0.25057683226
      </DataArray>
    </FieldData>
    <Piece NumberOfPoints="1000" NumberOfCells="0">
      <PointData>
        <DataArray type="Float64" Name="Damage" format="ascii" RangeMin="0" RangeMax="0.49719101124">
          0 0 0 0 0 0
          0 0 0 0 0 0.027932960894
          0 0 0 0 0 0
          0.027932960894 0 0 0.055084745763 0.071428571429 0.040345821326
          0.014164305949 0.012987012987 0.040345821326 0.071428571429 0.055084745763 0
          0 0.067669172932 0.11239193084 0.1074168798 0.037688442211 0.034562211982
          0.1074168798 0.11239193084 0.067669172932 0 0 0.074349442379
          0.16147308782 0.16834170854 0.12376237624 0.11286681716 0.16834170854 0.16147308782
          0.074349442379 0 0 0.084459459459 0.2 0.25806451613
          0.33860045147 0.39211618257 0.25806451613 0.2 0.084459459459 0
          0 0.093984962406 0.25360230548 0.36061381074 0.41959798995 0.46774193548
          0.36061381074 0.25360230548 0.093984962406 0 0 0.10593220339
          0.31493506494 0.40057636888 0.4447592068 0.49090909091 0.40057636888 0.31493506494
          0.10593220339 0 0 0.16759776536 0.3686440678 0.43984962406
          0.44609665428 0.49662162162 0.43984962406 0.3686440678 0.16759776536 0
          0 0.1677852349 0.36734693878 0.43891402715 0.44642857143 0.49593495935
          0.43891402715 0.36734693878 0.1677852349 0 0 0
          0 0 0 0 0 0
          0 0 0 0.027906976744 0 0
          0 0 0 0 0.027906976744 0
          0 0.056338028169 0.072776280323 0.040669856459 0.014117647059 0.012931034483
          0.040669856459 0.072776280323 0.056338028169 0 0 0.06875
          0.11483253589 0.10828025478 0.0375782881 0.034416826004 0.10828025478 0.11483253589
          0.06875 0 0 0.074303405573 0.16235294118 0.16910229645
          0.12371134021 0.11257035647 0.16910229645 0.16235294118 0.074303405573 0
          0 0.084269662921 0.20043103448 0.25812619503 0.33771106942 0.39242685026
          0.25812619503 0.20043103448 0.084269662921 0 0 0.09375
          0.25358851675 0.36093418259 0.41962421712 0.46845124283 0.36093418259 0.25358851675
          0.09375 0 0 0.10563380282 0.3153638814 0.4019138756
          0.44470588235 0.49137931034 0.4019138756 0.3153638814 0.10563380282 0
          0 0.16744186047 0.36971830986 0.440625 0.44582043344 0.49719101124
          0.440625 0.36971830986 0.16744186047 0 0 0.16759776536
          0.3686440678 0.43984962406 0.44609665428 0.49662162162 0.43984962406 0.3686440678
          0.16759776536 0 0 0 0 0
          0 0 0 0 0 0
          0 0.024647887324 0 0 0 0
          0 0 0.024647887324 0 0 0.051212938005
          0.06875 0.038817005545 0.012635379061 0.011666666667 0.038817005545 0.06875
          0.051212938005 0 0 0.064593301435 0.10905730129 0.10491803279
          0.036858974359 0.034023668639 0.10491803279 0.10905730129 0.064593301435 0
          0 0.070588235294 0.15523465704 0.16506410256 0.12283464567 0.11271676301
          0.16506410256 0.15523465704 0.070588235294 0 0 0.081896551724
          0.19333333333 0.25443786982 0.33959537572 0.38985313752 0.25443786982 0.19333333333
          0.081896551724 0 0 0.093301435407 0.24768946396 0.35573770492
          0.41987179487 0.46449704142 0.35573770492 0.24768946396 0.093301435407 0
          0 0.10781671159 0.30833333333 0.39556377079 0.4440433213 0.48666666667
          0.39556377079 0.30833333333 0.10781671159 0 0 0.16197183099
          0.35579514825 0.43062200957 0.44470588235 0.49137931034 0.43062200957 0.35579514825
          0.16197183099 0 0 0.16101694915 0.3538961039 0.42939481268
          0.4447592068 0.49090909091 0.42939481268 0.3538961039 0.16101694915 0
          0 0 0 0 0 0
          0 0 0 0 0 0.025
          0 0 0 0 0 0
          0.025 0 0 0.05023923445 0.068391866913 0.039344262295
          0.012820512821 0.011834319527 0.039344262295 0.068391866913 0.05023923445 0
          0 0.063694267516 0.10819672131 0.10465116279 0.036984352774 0.034120734908
          0.10465116279 0.10819672131 0.063694267516 0 0 0.070981210856
          0.15544871795 0.16500711238 0.12290502793 0.11282051282 0.16500711238 0.15544871795
          0.070981210856 0 0 0.082217973231 0.19378698225 0.25459317585
          0.33974358974 0.38981042654 0.25459317585 0.19378698225 0.082217973231 0
          0 0.093418259023 0.24918032787 0.35610465116 0.41963015647 0.46456692913
          0.35610465116 0.24918032787 0.093418259023 0 0 0.10765550239
          0.30868761553 0.39508196721 0.44391025641 0.48668639053 0.39508196721 0.30868761553
          0.10765550239 0 0 0.1625 0.35645933014 0.43099787686
          0.44467640919 0.4913957935 0.43099787686 0.35645933014 0.1625 0
          0 0.16165413534 0.35446685879 0.42966751918 0.44472361809 0.49078341014
          0.42966751918 0.35446685879 0.16165413534 0 0 0
          0 0 0 0 0 0
          0 0 0 0.02786377709 0 0
          0 0 0 0 0.02786377709 0
          0 0.054117647059 0.070397111913 0.040064102564 0.014173228346 0.013005780347
          0.040064102564 0.070397111913 0.054117647059 0 0 0.066805845511
          0.11057692308 0.106685633 0.037709497207 0.034615384615 0.106685633 0.11057692308
          0.066805845511 0 0 0.074226804124 0.16062992126 0.16759776536
          0.12362637363 0.11292346299 0.16759776536 0.16062992126 0.074226804124 0
          0 0.084427767355 0.19942196532 0.25769230769 0.33877038896 0.39145496536
          0.25769230769 0.19942196532 0.084427767355 0 0 0.093945720251
          0.25320512821 0.35988620199 0.41899441341 0.46666666667 0.35988620199 0.25320512821
          0.093945720251 0 0 0.10588235294 0.31407942238 0.39903846154
          0.44409448819 0.48988439306 0.39903846154 0.31407942238 0.10588235294 0
          0 0.16718266254 0.36705882353 0.43841336117 0.44536082474 0.49530956848
          0.43841336117 0.36705882353 0.16718266254 0 0 0.16728624535
          0.36543909348 0.43718592965 0.44554455446 0.49435665914 0.43718592965 0.36543909348
          0.16728624535 0 0 0 0 0
          0 0 0 0 0 0
          0 0.025280898876 0 0 0 0
          0 0 0.025280898876 0 0 0.049568965517
          0.066666666667 0.038461538462 0.013005780347 0.012016021362 0.038461538462 0.066666666667
          0.049568965517 0 0 0.06309751434 0.1050295858 0.10367454068
          0.037179487179 0.034360189573 0.10367454068 0.1050295858 0.06309751434 0
          0 0.071294559099 0.15462427746 0.1641025641 0.12296110414 0.11316397229
          0.1641025641 0.15462427746 0.071294559099 0 0 0.082616179002
          0.19359145527 0.25473933649 0.34064665127 0.38930481283 0.25473933649 0.19359145527
          0.082616179002 0 0 0.093690248566 0.24852071006 0.35564304462
          0.41923076923 0.46327014218 0.35564304462 0.24852071006 0.093690248566 0
          0 0.10775862069 0.30833333333 0.39349112426 0.4436416185 0.48598130841
          0.39349112426 0.30833333333 0.10775862069 0 0 0.16292134831
          0.35560344828 0.43021032505 0.44465290807 0.49053356282 0.43021032505 0.35560344828
          0.16292134831 0 0 0.16216216216 0.35324675325 0.42857142857
          0.44469525959 0.48962655602 0.42857142857 0.35324675325 0.16216216216 0
          0 0 0 0 0 0
          0 0 0 0 0 0.025
          0 0 0 0 0 0
          0.025 0 0 0.05023923445 0.068391866913 0.039344262295
          0.012820512821 0.011834319527 0.039344262295 0.068391866913 0.05023923445 0
          0 0.063694267516 0.10819672131 0.10465116279 0.036984352774 0.034120734908
          0.10465116279 0.10819672131 0.063694267516 0 0 0.070981210856
          0.15544871795 0.16500711238 0.12290502793 0.11282051282 0.16500711238 0.15544871795
          0.070981210856 0 0 0.082217973231 0.19378698225 0.25459317585
          0.33974358974 0.38981042654 0.25459317585 0.19378698225 0.082217973231 0
          0 0.093418259023 0.24918032787 0.35610465116 0.41963015647 0.46456692913
          0.35610465116 0.24918032787 0.093418259023 0 0 0.10765550239
          0.30868761553 0.39508196721 0.44391025641 0.48668639053 0.39508196721 0.30868761553
          0.10765550239 0 0 0.1625 0.35645933014 0.43099787686
          0.44467640919 0.4913957935 0.43099787686 0.35645933014 0.1625 0
          0 0.16165413534 0.35446685879 0.42966751918 0.44472361809 0.49078341014
          0.42966751918 0.35446685879 0.16165413534 0 0 0
          0 0 0 0 0 0
          0 0 0 0.024647887324 0 0
          0 0 0 0 0.024647887324 0
          0 0.051212938005 0.06875 0.038817005545 0.012635379061 0.011666666667
          0.038817005545 0.06875 0.051212938005 0 0 0.064593301435
          0.10905730129 0.10491803279 0.036858974359 0.034023668639 0.10491803279 0.10905730129
          0.064593301435 0 0 0.070588235294 0.15523465704 0.16506410256
          0.12283464567 0.11271676301 0.16506410256 0.15523465704 0.070588235294 0
          0 0.081896551724 0.19333333333 0.25443786982 0.33959537572 0.38985313752
          0.25443786982 0.19333333333 0.081896551724 0 0 0.093301435407
          0.24768946396 0.35573770492 0.41987179487 0.46449704142 0.35573770492 0.24768946396
          0.093301435407 0 0 0.10781671159 0.30833333333 0.39556377079
          0.4440433213 0.48666666667 0.39556377079 0.30833333333 0.10781671159 0
          0 0.16197183099 0.35579514825 0.43062200957 0.44470588235 0.49137931034
          0.43062200957 0.35579514825 0.16197183099 0 0 0.16101694915
          0.3538961039 0.42939481268 0.4447592068 0.49090909091 0.42939481268 0.3538961039
          0.16101694915 0 0 0 0 0
          0 0 0 0 0 0
          0 0.027906976744 0 0 0 0
          0 0 0.027906976744 0 0 0.056338028169
          0.072776280323 0.040669856459 0.014117647059 0.012931034483 0.040669856459 0.072776280323
          0.056338028169 0 0 0.06875 0.11483253589 0.10828025478
          0.0375782881 0.034416826004 0.10828025478 0.11483253589 0.06875 0
          0 0.074303405573 0.16235294118 0.16910229645 0.12371134021 0.11257035647
          0.16910229645 0.16235294118 0.074303405573 0 0 0.084269662921
          0.20043103448 0.25812619503 0.33771106942 0.39242685026 0.25812619503 0.20043103448
          0.084269662921 0 0 0.09375 0.25358851675 0.36093418259
          0.41962421712 0.46845124283 0.36093418259 0.25358851675 0.09375 0
          0 0.10563380282 0.3153638814 0.4019138756 0.44470588235 0.49137931034
          0.4019138756 0.3153638814 0.10563380282 0 0 0.16744186047
          0.36971830986 0.440625 0.44582043344 0.49719101124 0.440625 0.36971830986
          0.16744186047 0 0 0.16759776536 0.3686440678 0.43984962406
          0.44609665428 0.49662162162 0.43984962406 0.3686440678 0.16759776536 0
          0 0 0 0 0 0
          0 0 0 0 0 0.027932960894
          0 0 0 0 0 0
          0.027932960894 0 0 0.055084745763 0.071428571429 0.040345821326
          0.014164305949 0.012987012987 0.040345821326 0.071428571429 0.055084745763 0
          0 0.067669172932 0.11239193084 0.1074168798 0.037688442211 0.034562211982
          0.1074168798 0.11239193084 0.067669172932 0 0 0.074349442379
          0.16147308782 0.16834170854 0.12376237624 0.11286681716 0.16834170854 0.16147308782
          0.074349442379 0 0 0.084459459459 0.2 0.25806451613
          0.33860045147 0.39211618257 0.25806451613 0.2 0.084459459459 0
          0 0.093984962406 0.25360230548 0.36061381074 0.41959798995 0.46774193548
          0.36061381074 0.25360230548 0.093984962406 0 0 0.10593220339
          0.31493506494 0.40057636888 0.4447592068 0.49090909091 0.40057636888 0.31493506494
          0.10593220339 0 0 0.16759776536 0.3686440678 0.43984962406
          0.44609665428 0.49662162162 0.43984962406 0.3686440678 0.16759776536 0
          0 0.1677852349 0.36734693878 0.43891402715 0.44642857143 0.49593495935
          0.43891402715 0.36734693878 0.1677852349 0
        </DataArray>
        <DataArray type="Float64" Name="Displacement" NumberOfComponents="3" format="ascii" RangeMin="1.5803919559" RangeMax="1.5961189297">
          -0.003918501129 1.5866846621 -0.012941922379 -0.0049599430313 1.5868415471 -0.013837273588
          -0.0052259736808 1.5876320848 -0.014256908546 -0.0054525516032 1.5860812969 -0.012847977278
          -0.0052070133933 1.5860432721 -0.013159213501 -0.0051850833406 1.5863373516 -0.01365665609
          -0.0049497959398 1.585302845 -0.012881348866 -0.0050604229941 1.5862421135 -0.014170564491
          -0.0055535484024 1.5849789903 -0.013753055083 -0.0064151074116 1.5841376057 -0.012963536083
          -0.0057705311872 1.586916118 -0.012681680913 -0.00413973221 1.5855449624 -0.012803608663
          -0.0051077937492 1.5845674509 -0.011984868959 -0.0046745681451 1.584973193 -0.012721614485
          -0.0051438842028 1.5852744094 -0.01287922098 -0.0049158743481 1.5848265127 -0.012712472483
          -0.0051473774448 1.5843621499 -0.012822694063 -0.0047331571494 1.5830616597 -0.011857682825
          -0.0057198850649 1.5837895596 -0.012838243501 -0.0041293381153 1.5844819457 -0.012524409432
          -0.0040210431258 1.5854292815 -0.013802948614 -0.0054252845718 1.5856543646 -0.013216991263
          -0.0049881247019 1.5853261935 -0.013317108064 -0.004483263206 1.5857211368 -0.013862798588
          -0.0046169454484 1.5853730414 -0.013607626348 -0.0046382786553 1.5848614445 -0.013223789977
          -0.0048031276886 1.5849243897 -0.013843799893 -0.0043188789378 1.5839762909 -0.013290865465
          -0.0039192439796 1.583763747 -0.01323005515 -0.005316624499 1.5831417631 -0.01389190298
          -0.0046093766002 1.5863081727 -0.014104989226 -0.0047046716037 1.585936163 -0.014083261653
          -0.0044510249673 1.5855677522 -0.014266603581 -0.0051629657053 1.5850026627 -0.013647496063
          -0.0044249461949 1.5857121598 -0.0142697076 -0.0044889146965 1.5854141581 -0.014248953638
          -0.0034580723099 1.5840892463 -0.013496826395 -0.0042941627194 1.5842548788 -0.014230289079
          -0.0040795826613 1.5840193723 -0.014000994973 -0.0042128448991 1.5838446941 -0.014138479846
          -0.0041539304117 1.5867655555 -0.014961204419 -0.0040026409844 1.5855017127 -0.014936133949
          -0.0044075461925 1.5859761226 -0.014407646026 -0.0041464452118 1.586001278 -0.014396106874
          -0.0047962917562 1.5847147085 -0.0146690131 -0.003835289506 1.585010291 -0.014449730015
          -0.0040327959087 1.5850353884 -0.014314087055 -0.0037851073283 1.5846279607 -0.014335584108
          -0.0042099068886 1.5836693983 -0.014875487779 -0.0041073051582 1.5843578526 -0.014958096915
          -0.0040661100723 1.5867211746 -0.01499033135 -0.0031204033141 1.5854277979 -0.015507978625
          -0.0040174018932 1.5860650714 -0.014522495283 -0.0043974047647 1.5854947977 -0.014575378825
          -0.0067456127756 1.5851377392 -0.016103573569 -0.00082856450843 1.584874611 -0.016040262094
          -0.003289266664 1.5847595058 -0.014594330491 -0.0036826194718 1.5846854636 -0.014495296658
          -0.004587967021 1.5835730741 -0.015433853208 -0.0036446471912 1.5842183258 -0.014960935612
          -0.0049025816414 1.5857444738 -0.014784964805 -0.0038431973263 1.5859519274 -0.015279901586
          -0.0044461966336 1.5853679082 -0.01588205386 -0.006561745048 1.5855014956 -0.016135723462
          -0.0059681779272 1.5859056519 -0.016426253334 -0.0011914911755 1.5855807888 -0.016371561566
          -0.00058963195203 1.5846097119 -0.016097032928 -0.0027158249724 1.5839593203 -0.01580856148
          -0.0033699980549 1.5840194812 -0.015294511168 -0.0021780573382 1.5833034687 -0.014676049679
          -0.0045432732504 1.5873110145 -0.014445502981 -0.005172016559 1.585936751 -0.014739277913
          -0.0041951916327 1.5865893261 -0.015181697027 0.0013578642413 1.5870634734 -0.013383635911
          -0.0044521889889 1.5855846852 -0.016557705922 -0.002034309783 1.5852949849 -0.016595108651
          -0.0080453500587 1.5862565215 -0.013327779578 -0.0024210618787 1.5852078479 -0.015165647941
          -0.0013129111267 1.5839940163 -0.014638494844 -0.0021267871628 1.5849639928 -0.014386785032
          -0.0081248873588 1.5827773698 -0.015062873511 -0.0082522434641 1.5862038838 -0.013811077205
          -0.0068043492253 1.5856307802 -0.015912400687 -0.0038893359026 1.5853747221 -0.017078328957
          -0.0071044590254 1.5844790493 -0.019042854635 0.001048988458 1.5842038442 -0.019131578561
          -0.0022814629306 1.5845018605 -0.01707801303 0.00067865413869 1.5841627593 -0.015981760294
          0.0024165644926 1.5842274348 -0.013720531761 0.0021181750456 1.5803188625 -0.015051261307
          -0.0016738500977 1.5852258779 -0.018841369532 -0.0084531984339 1.5834978414 -0.015605809492
          -0.0084625467403 1.5854705457 -0.014884575168 -0.0072651421383 1.5825634348 -0.019920954716
          -0.0041745792642 1.5927423807 -0.010417736535 -0.0012313927888 1.5924385489 -0.010595722822
          0.0017462484567 1.5816517759 -0.020043365101 0.0030425714682 1.5840979494 -0.014872410578
          0.0029950492004 1.5812909962 -0.015852178828 -0.0039916653863 1.5824807205 -0.019279228482
          -0.0039245822131 1.5864082022 -0.013356052761 -0.0058186112061 1.5863051978 -0.011615267028
          -0.0053519143414 1.5852538662 -0.011224565566 -0.0052061031401 1.5857955693 -0.012362085341
          -0.0053809423165 1.5856950523 -0.01254574103 -0.0051341894585 1.5852970685 -0.012322455253
          -0.0052379054341 1.5851459312 -0.0125110415 -0.0050684720303 1.5838370009 -0.011131261961
          -0.0045946308826 1.5844045727 -0.011578606317 -0.0065430174361 1.5840448862 -0.013313313132
          -0.0050608409607 1.5864349199 -0.012659871941 -0.0053351832991 1.5859638909 -0.012881400916
          -0.0048482326564 1.5860541955 -0.012980846032 -0.0050114461934 1.5861296785 -0.013157270953
          -0.004870560521 1.5856747148 -0.012918281314 -0.00503323199 1.5856193007 -0.013231975641
          -0.0048341078241 1.5852198109 -0.013023617585 -0.0049998349788 1.5847014331 -0.012957087691
          -0.0045438362136 1.5840800179 -0.01284874977 -0.0048754585123 1.5839263662 -0.012651927651
          -0.0050443246217 1.5867911777 -0.01264905138 -0.0047019221986 1.5859302588 -0.013223992721
          -0.0048724564692 1.5861106657 -0.013102896216 -0.0046225799981 1.5860855971 -0.013651544634
          -0.0046578520656 1.5858712968 -0.013514616461 -0.0046643263305 1.5855985743 -0.013502725594
          -0.0046960137908 1.5852483299 -0.013598834914 -0.0044421923482 1.5847868899 -0.013100606847
          -0.0046139382515 1.5840433401 -0.013201319111 -0.0042549128158 1.5843454434 -0.012613617189
          -0.0039813767167 1.5863259762 -0.014131756889 -0.004652709415 1.5863483892 -0.013637718507
          -0.0044139135687 1.5861896065 -0.014033218521 -0.0041030662715 1.5863711678 -0.014634145366
          -0.0043357521027 1.5859420235 -0.013965387767 -0.0044333018436 1.5856508672 -0.013909206364
          -0.0046745278529 1.5855598507 -0.014603729744 -0.0043555447778 1.5848249574 -0.0139878543
          -0.0041200937677 1.584455284 -0.0136094263 -0.004795683618 1.5839191635 -0.014091895201
          -0.0034632970942 1.5858071899 -0.014262356466 -0.0045117115395 1.5867097523 -0.013917088392
          -0.0041723846072 1.5861941431 -0.014578572653 -0.0042283187129 1.5860431289 -0.014343428871
          -0.0042010830075 1.5858590647 -0.01437441265 -0.0040497881596 1.585551364 -0.014338836546
          -0.0040368237018 1.5852666204 -0.014313430601 -0.0040786337282 1.5848333202 -0.014548964498
          -0.0037238228265 1.5848127973 -0.013886672413 -0.0047361860378 1.5833873866 -0.014253472886
          -0.0043215815549 1.586077321 -0.014591736259 -0.0046281367333 1.5862371382 -0.014401111613
          -0.0039198670333 1.586232361 -0.014875376396 -0.0039707668134 1.5860383696 -0.014698112808
          -0.0043148482385 1.5858259555 -0.014958904933 -0.0033375641867 1.58556954 -0.01495717587
          -0.0036868203597 1.5851799522 -0.014776465518 -0.0037490993859 1.5848517622 -0.014862984472
          -0.0030725929942 1.5843435339 -0.014354581954 -0.0033585394572 1.5836688896 -0.014572264531
          -0.0041200828179 1.5863695861 -0.015169961638 -0.004367055055 1.5862399337 -0.014836098768
          -0.0039444218153 1.5861198423 -0.015268488174 -0.003622407331 1.5860308275 -0.015279225169
          -0.0045601089331 1.5859193591 -0.015595059684 -0.00256338047 1.5856939783 -0.015540334717
          -0.0034974553962 1.5852096172 -0.01528544441 -0.0032171901209 1.5847380912 -0.015237986828
          -0.0027947283422 1.5843404562 -0.014793131131 -0.0030202003966 1.5839583454 -0.015162139546
          -0.0048439012183 1.5859867593 -0.015008274124 -0.0042768823548 1.5863636791 -0.01520413961
          -0.0041325074299 1.5857559966 -0.015861588115 -0.0036260652437 1.5858041219 -0.015663837027
          -0.004248911642 1.5869889678 -0.014462648466 -0.0024511369944 1.5866942948 -0.014442743438
          -0.003068479919 1.5849856827 -0.015662887558 -0.0024296971596 1.5843884012 -0.015871912412
          -0.0023294358221 1.5844749396 -0.01519660204 -0.0017362055262 1.5835897608 -0.014947841991
          -0.0038762766739 1.5883971962 -0.014820462791 -0.005160269471 1.5856852149 -0.015551490331
          -0.0037915925565 1.586745517 -0.015484098605 -0.0037596854167 1.5865406677 -0.015431106612
          -0.0017711067459 1.5851825613 -0.015384600068 -0.0043436696353 1.5848858381 -0.01532806085
          -0.0023936684763 1.5856890356 -0.015391548137 -0.0023133148859 1.5853554748 -0.015458117337
          -0.0010128690984 1.5838082803 -0.015545188429 -0.0022491259263 1.5859696805 -0.014815630881
          -0.0050616348754 1.5843265449 -0.016162878658 -0.0031514999752 1.5839838419 -0.018310214728
          -0.0040973610293 1.5853839073 -0.015911543338 -0.0048491636464 1.5858664653 -0.015358792138
          -0.0057951481938 1.5840084973 -0.018775534536 0.00032230216945 1.5837107212 -0.018798601578
          -0.00079559094021 1.5850047949 -0.015355139267 -0.001565960649 1.5839881356 -0.015960829789
          -0.0024350690785 1.5820926144 -0.01840611704 -0.00064300380531 1.5821159392 -0.016114506718
          -0.0055685905395 1.586969372 -0.012154051435 -0.0058539027133 1.5873603944 -0.012822607555
          -0.0051770020861 1.5865196285 -0.012507669267 -0.0050096091419 1.5861448393 -0.012151930301
          -0.0051819418407 1.5868295336 -0.013288930263 -0.0052430055382 1.5868065285 -0.013454276518
          -0.0053686730516 1.5853341594 -0.012112668393 -0.0051964712007 1.5851874422 -0.012504151201
          -0.004619544541 1.5854699081 -0.012785735748 -0.0048744872586 1.5845095146 -0.012155462369
          -0.0048799399697 1.5870780718 -0.013125868233 -0.0050108505913 1.5868237808 -0.012879959461
          -0.0051766390525 1.5871207879 -0.013202990025 -0.0049115713819 1.5865327985 -0.013168468039
          -0.0049437873572 1.5862672967 -0.013081408377 -0.0048974435307 1.5860242069 -0.013109273844
          -0.004979708767 1.5856911613 -0.013148911246 -0.0046898981007 1.5857223037 -0.013138479127
          -0.0048779989653 1.5849066976 -0.012872329269 -0.0049971300196 1.5845676625 -0.013105097312
          -0.0049598590989 1.5866037772 -0.013195767758 -0.0051029410039 1.5870903351 -0.013407118353
          -0.0045820076751 1.5867183698 -0.013574759721 -0.0046777571514 1.586473462 -0.013592533671
          -0.0046609423097 1.5863170889 -0.013586433173 -0.0047487327358 1.586111141 -0.013532663539
          -0.0046445243624 1.5856571187 -0.013574043688 -0.0047424519098 1.5853854502 -0.013520501209
          -0.0042211801112 1.5851992035 -0.013366431446 -0.0043811143596 1.5841894849 -0.013180418089
          -0.0044151524362 1.587303082 -0.014191269807 -0.0042776458863 1.5868519805 -0.01400744502
          -0.0042988829506 1.5867281412 -0.014052749371 -0.0043760827556 1.5864834308 -0.014003273914
          -0.0043696033132 1.5862980669 -0.014097807393 -0.0044170879914 1.5860172213 -0.014069522925
          -0.004407802476 1.5856580182 -0.013991139964 -0.0044947349366 1.5853811148 -0.013988402837
          -0.0044977351279 1.5849722004 -0.013977107496 -0.0043853226101 1.584862483 -0.01417982712
          -0.0044843076182 1.5870631207 -0.014132730125 -0.0038349602615 1.5868526005 -0.014564292045
          -0.0040501623893 1.5866322723 -0.014432264416 -0.0041965345981 1.5864720201 -0.014377039466
          -0.0041522979566 1.5862961024 -0.014377671772 -0.0040862731497 1.5860406356 -0.014331966614
          -0.0040574985973 1.5856760941 -0.014364488011 -0.0042244634779 1.5852898502 -0.014405323983
          -0.004402745621 1.5849515476 -0.014510150864 -0.0037488087965 1.5846241248 -0.014091203782
          -0.0046036209618 1.5868447471 -0.014264855809 -0.0038489725415 1.5868171565 -0.014889016986
          -0.004013575436 1.5866732153 -0.014827538918 -0.0038891965942 1.5863536613 -0.014761396219
          -0.0039001772008 1.5863489402 -0.01469102901 -0.0037895264262 1.5860765599 -0.014636717387
          -0.0037997449977 1.5854957097 -0.014723769231 -0.0037004896487 1.5853076153 -0.014782020781
          -0.0038787815444 1.5849119492 -0.014847769347 -0.0030864386352 1.5843933396 -0.014232608945
          -0.0039936708898 1.5867186623 -0.015498830188 -0.0036032277632 1.5867703222 -0.015303577862
          -0.0035738376521 1.5866667161 -0.015137459225 -0.0034085393534 1.5864725707 -0.015051964777
          -0.0044949300441 1.5863647946 -0.015489644687 -0.002649880634 1.586083883 -0.015498068481
          -0.0036966237218 1.5856573214 -0.015005393903 -0.0035929168737 1.5852967541 -0.01509030499
          -0.0035077922197 1.5848389133 -0.015255086733 -0.0031709939283 1.584267393 -0.015478230862
          -0.0040224865812 1.5872694548 -0.014688434528 -0.0041702305594 1.5862147794 -0.015974437146
          -0.0041201591203 1.586257519 -0.015675509162 -0.0050966727838 1.5866033534 -0.015595012053
          -0.0043290675386 1.5863638363 -0.015544945302 -0.0022840431194 1.5861050862 -0.015520705536
          -0.0014843694458 1.5857776171 -0.015605375686 -0.0024869702141 1.5848959359 -0.015663246209
          -0.0024258075062 1.5842835006 -0.015947975178 -0.002627542751 1.5848468471 -0.014678845864
          -0.0038416314594 1.5877630468 -0.015973453706 -0.0037193796563 1.5872557875 -0.015642217965
          -0.0038689851252 1.5862925367 -0.016046744953 -0.0046802921287 1.5860072275 -0.016583603428
          -0.0039755550197 1.5859986867 -0.016046220803 -0.0021613172002 1.5857068721 -0.016037212304
          -0.0014493650895 1.5851574164 -0.016577226411 -0.002189388797 1.5849374687 -0.016034503065
          -0.0023673621438 1.5853445591 -0.01565518395 -0.0022997909952 1.5853959034 -0.01594826774
          -0.0062359977272 1.5831936575 -0.015352031495 0.00029574060251 1.5875686463 -0.016933034935
          -0.0028755849364 1.5855140048 -0.017211006489 -0.0090070418409 1.5870226997 -0.016324458902
          -0.00217431267 1.584698261 -0.015912681601 -0.0033702016306 1.5844486735 -0.015881280914
          0.0035070823202 1.5862039794 -0.016268152835 -0.0026990088938 1.5841488031 -0.017132523477
          -0.005849079448 1.5856832736 -0.016848873248 0.00054512907359 1.5809031931 -0.015337246454
          -0.0042458429728 1.5863891666 -0.01291264023 -0.0054813627132 1.5877495907 -0.013145970089
          -0.005246857234 1.5874090705 -0.012910358795 -0.0053818588331 1.5874274113 -0.012894682284
          -0.0051568783893 1.5866050666 -0.012596480931 -0.0051673065844 1.5864175974 -0.012596751785
          -0.0050033583221 1.5866006507 -0.012900214791 -0.0051337069726 1.5860514874 -0.012846757719
          -0.0049774416789 1.5859031391 -0.013080809293 -0.0061349852679 1.5839732039 -0.012880287153
          -0.0051001430182 1.588029341 -0.013152427027 -0.0052359575638 1.587671512 -0.013130440097
          -0.0049963038385 1.5872330088 -0.013093336496 -0.0049967867966 1.5870088194 -0.013156176476
          -0.0049467880791 1.5866580855 -0.013168365184 -0.0049323384461 1.5863281782 -0.013107060516
          -0.0048637519884 1.586239643 -0.013159293551 -0.0048821720374 1.5858880333 -0.013088504286
          -0.0046227032637 1.5857961723 -0.013096035216 -0.004726041935 1.5856241812 -0.013110458604
          -0.0046732929274 1.5873251802 -0.013656610494 -0.0050107457323 1.5874505644 -0.013483062489
          -0.0047206515242 1.5870414197 -0.013549672238 -0.0046454317546 1.5869240949 -0.013565362968
          -0.0046482013504 1.5867470314 -0.013569600445 -0.0045955826149 1.5864621198 -0.013543230836
          -0.0047056864972 1.5861138845 -0.01353422581 -0.0046184250112 1.5856984488 -0.013533297517
          -0.0043308986256 1.5855560209 -0.013450020877 -0.0046887949224 1.5848393644 -0.013632602329
          -0.0048369463275 1.5875564158 -0.013636744709 -0.0045445552981 1.5872855167 -0.013909437329
          -0.0044313402361 1.5871513054 -0.013951367736 -0.0043480897533 1.586900711 -0.014031728414
          -0.00436349636 1.5866957163 -0.013925202169 -0.0044117612428 1.58645204 -0.013915330765
          -0.004422971393 1.5860933594 -0.013988158677 -0.0043817147047 1.5858074511 -0.013924214342
          -0.0042840047413 1.5853889494 -0.013882909995 -0.0039435324699 1.5851153581 -0.013606662889
          -0.0042993310089 1.5878721249 -0.014536133652 -0.0043982484359 1.5872234136 -0.014350255234
          -0.0041167145673 1.5870961181 -0.014379205881 -0.0041827551224 1.5868924948 -0.014382275934
          -0.004158064318 1.5867393998 -0.014371113409 -0.0040895005822 1.5864780772 -0.014417654344
          -0.0041041164987 1.5860539813 -0.014376960696 -0.0041472663547 1.5857395405 -0.014357135374
          -0.0038750994254 1.5853114578 -0.014310769519 -0.0039230846571 1.5854368558 -0.014496326104