<?xml version="1.0"?>
<VTKFile type="UnstructuredGrid" version="0.1" byte_order="LittleEndian" compressor="vtkZLibDataCompressor">
  <UnstructuredGrid>
    <FieldData>
      <DataArray type="Float64" Name="TIME" NumberOfTuples="1" format="ascii" RangeMin="0.30535283464" RangeMax="0.30535283464">
        0.30535283464
      </DataArray>
    </FieldData>
    <Piece NumberOfPoints="1000" NumberOfCells="0">
      <PointData>
        <DataArray type="Float64" Name="Damage" format="ascii" RangeMin="0" RangeMax="0.49719101124">
          0 0 0 0 0 0
          0 0 0 0 0 0.027932960894
          0 0 0 0 0 0
          0.027932960894 0 0 0.055084745763 0.071428571429 0.040345821326
          0.014164305949 0.012987012987 0.040345821326 0.071428571429 0.055084745763 0
          0 0.067669172932 0.11239193084 0.1074168798 0.037688442211 0.034562211982
          0.1074168798 0.11239193084 0.067669172932 0 0 0.074349442379
          0.16147308782 0.16834170854 0.12376237624 0.11286681716 0.16834170854 0.16147308782
          0.074349442379 0 0 0.084459459459 0.2 0.25806451613
          0.33860045147 0.39211618257 0.25806451613 0.2 0.084459459459 0
          0 0.093984962406 0.25360230548 0.36061381074 0.41959798995 0.46774193548
          0.36061381074 0.25360230548 0.093984962406 0 0 0.10593220339
          0.31493506494 0.40057636888 0.4447592068 0.49090909091 0.40057636888 0.31493506494
          0.10593220339 0 0 0.16759776536 0.3686440678 0.43984962406
          0.44609665428 0.49662162162 0.43984962406 0.3686440678 0.16759776536 0
          0 0.1677852349 0.36734693878 0.43891402715 0.44642857143 0.49593495935
          0.43891402715 0.36734693878 0.1677852349 0 0 0
          0 0 0 0 0 0
          0 0 0 0.027906976744 0 0
          0 0 0 0 0.027906976744 0
          0 0.056338028169 0.072776280323 0.040669856459 0.014117647059 0.012931034483
          0.040669856459 0.072776280323 0.056338028169 0 0 0.06875
          0.11483253589 0.10828025478 0.0375782881 0.034416826004 0.10828025478 0.11483253589
          0.06875 0 0 0.074303405573 0.16235294118 0.16910229645
          0.12371134021 0.11257035647 0.16910229645 0.16235294118 0.074303405573 0
          0 0.084269662921 0.20043103448 0.25812619503 0.33771106942 0.39242685026
          0.25812619503 0.20043103448 0.084269662921 0 0 0.09375
          0.25358851675 0.36093418259 0.41962421712 0.46845124283 0.36093418259 0.25358851675
          0.09375 0 0 0.10563380282 0.3153638814 0.4019138756
          0.44470588235 0.49137931034 0.4019138756 0.3153638814 0.10563380282 0
          0 0.16744186047 0.36971830986 0.440625 0.44582043344 0.49719101124
          0.440625 0.36971830986 0.16744186047 0 0 0.16759776536
          0.3686440678 0.43984962406 0.44609665428 0.49662162162 0.43984962406 0.3686440678
          0.16759776536 0 0 0 0 0
          0 0 0 0 0 0
          0 0.024647887324 0 0 0 0
          0 0 0.024647887324 0 0 0.051212938005
          0.06875 0.038817005545 0.012635379061 0.011666666667 0.038817005545 0.06875
          0.051212938005 0 0 0.064593301435 0.10905730129 0.10491803279
          0.036858974359 0.034023668639 0.10491803279 0.10905730129 0.064593301435 0
          0 0.070588235294 0.15523465704 0.16506410256 0.12283464567 0.11271676301
          0.16506410256 0.15523465704 0.070588235294 0 0 0.081896551724
          0.19333333333 0.25443786982 0.33959537572 0.38985313752 0.25443786982 0.19333333333
          0.081896551724 0 0 0.093301435407 0.24768946396 0.35573770492
          0.41987179487 0.46449704142 0.35573770492 0.24768946396 0.093301435407 0
          0 0.10781671159 0.30833333333 0.39556377079 0.4440433213 0.48666666667
          0.39556377079 0.30833333333 0.10781671159 0 0 0.16197183099
          0.35579514825 0.43062200957 0.44470588235 0.49137931034 0.43062200957 0.35579514825
          0.16197183099 0 0 0.16101694915 0.3538961039 0.42939481268
          0.4447592068 0.49090909091 0.42939481268 0.3538961039 0.16101694915 0
          0 0 0 0 0 0
          0 0 0 0 0 0.025
          0 0 0 0 0 0
          0.025 0 0 0.05023923445 0.068391866913 0.039344262295
          0.012820512821 0.011834319527 0.039344262295 0.068391866913 0.05023923445 0
          0 0.063694267516 0.10819672131 0.10465116279 0.036984352774 0.034120734908
          0.10465116279 0.10819672131 0.063694267516 0 0 0.070981210856
          0.15544871795 0.16500711238 0.12290502793 0.11282051282 0.16500711238 0.15544871795
          0.070981210856 0 0 0.082217973231 0.19378698225 0.25459317585
          0.33974358974 0.38981042654 0.25459317585 0.19378698225 0.082217973231 0
          0 0.093418259023 0.24918032787 0.35610465116 0.41963015647 0.46456692913
          0.35610465116 0.24918032787 0.093418259023 0 0 0.10765550239
          0.30868761553 0.39508196721 0.44391025641 0.48668639053 0.39508196721 0.30868761553
          0.10765550239 0 0 0.1625 0.35645933014 0.43099787686
          0.44467640919 0.4913957935 0.43099787686 0.35645933014 0.1625 0
          0 0.16165413534 0.35446685879 0.42966751918 0.44472361809 0.49078341014
          0.42966751918 0.35446685879 0.16165413534 0 0 0
          0 0 0 0 0 0
          0 0 0 0.02786377709 0 0
          0 0 0 0 0.02786377709 0
          0 0.054117647059 0.070397111913 0.040064102564 0.014173228346 0.013005780347
          0.040064102564 0.070397111913 0.054117647059 0 0 0.066805845511
          0.11057692308 0.106685633 0.037709497207 0.034615384615 0.106685633 0.11057692308
          0.066805845511 0 0 0.074226804124 0.16062992126 0.16759776536
          0.12362637363 0.11292346299 0.16759776536 0.16062992126 0.074226804124 0
          0 0.084427767355 0.19942196532 0.25769230769 0.33877038896 0.39145496536
          0.25769230769 0.19942196532 0.084427767355 0 0 0.093945720251
          0.25320512821 0.35988620199 0.41899441341 0.46666666667 0.35988620199 0.25320512821
          0.093945720251 0 0 0.10588235294 0.31407942238 0.39903846154
          0.44409448819 0.48988439306 0.39903846154 0.31407942238 0.10588235294 0
          0 0.16718266254 0.36705882353 0.43841336117 0.44536082474 0.49530956848
          0.43841336117 0.36705882353 0.16718266254 0 0 0.16728624535
          0.36543909348 0.43718592965 0.44554455446 0.49435665914 0.43718592965 0.36543909348
          0.16728624535 0 0 0 0 0
          0 0 0 0 0 0
          0 0.025280898876 0 0 0 0
          0 0 0.025280898876 0 0 0.049568965517
          0.066666666667 0.038461538462 0.013005780347 0.012016021362 0.038461538462 0.066666666667
          0.049568965517 0 0 0.06309751434 0.1050295858 0.10367454068
          0.037179487179 0.034360189573 0.10367454068 0.1050295858 0.06309751434 0
          0 0.071294559099 0.15462427746 0.1641025641 0.12296110414 0.11316397229
          0.1641025641 0.15462427746 0.071294559099 0 0 0.082616179002
          0.19359145527 0.25473933649 0.34064665127 0.38930481283 0.25473933649 0.19359145527
          0.082616179002 0 0 0.093690248566 0.24852071006 0.35564304462
          0.41923076923 0.46327014218 0.35564304462 0.24852071006 0.093690248566 0
          0 0.10775862069 0.30833333333 0.39349112426 0.4436416185 0.48598130841
          0.39349112426 0.30833333333 0.10775862069 0 0 0.16292134831
          0.35560344828 0.43021032505 0.44465290807 0.49053356282 0.43021032505 0.35560344828
          0.16292134831 0 0 0.16216216216 0.35324675325 0.42857142857
          0.44469525959 0.48962655602 0.42857142857 0.35324675325 0.16216216216 0
          0 0 0 0 0 0
          0 0 0 0 0 0.025
          0 0 0 0 0 0
          0.025 0 0 0.05023923445 0.068391866913 0.039344262295
          0.012820512821 0.011834319527 0.039344262295 0.068391866913 0.05023923445 0
          0 0.063694267516 0.10819672131 0.10465116279 0.036984352774 0.034120734908
          0.10465116279 0.10819672131 0.063694267516 0 0 0.070981210856
          0.15544871795 0.16500711238 0.12290502793 0.11282051282 0.16500711238 0.15544871795
          0.070981210856 0 0 0.082217973231 0.19378698225 0.25459317585
          0.33974358974 0.38981042654 0.25459317585 0.19378698225 0.082217973231 0
          0 0.093418259023 0.24918032787 0.35610465116 0.41963015647 0.46456692913
          0.35610465116 0.24918032787 0.093418259023 0 0 0.10765550239
          0.30868761553 0.39508196721 0.44391025641 0.48668639053 0.39508196721 0.30868761553
          0.10765550239 0 0 0.1625 0.35645933014 0.43099787686
          0.44467640919 0.4913957935 0.43099787686 0.35645933014 0.1625 0
          0 0.16165413534 0.35446685879 0.42966751918 0.44472361809 0.49078341014
          0.42966751918 0.35446685879 0.16165413534 0 0 0
          0 0 0 0 0 0
          0 0 0 0.024647887324 0 0
          0 0 0 0 0.024647887324 0
          0 0.051212938005 0.06875 0.038817005545 0.012635379061 0.011666666667
          0.038817005545 0.06875 0.051212938005 0 0 0.064593301435
          0.10905730129 0.10491803279 0.036858974359 0.034023668639 0.10491803279 0.10905730129
          0.064593301435 0 0 0.070588235294 0.15523465704 0.16506410256
          0.12283464567 0.11271676301 0.16506410256 0.15523465704 0.070588235294 0
          0 0.081896551724 0.19333333333 0.25443786982 0.33959537572 0.38985313752
          0.25443786982 0.19333333333 0.081896551724 0 0 0.093301435407
          0.24768946396 0.35573770492 0.41987179487 0.46449704142 0.35573770492 0.24768946396
          0.093301435407 0 0 0.10781671159 0.30833333333 0.39556377079
          0.4440433213 0.48666666667 0.39556377079 0.30833333333 0.10781671159 0
          0 0.16197183099 0.35579514825 0.43062200957 0.44470588235 0.49137931034
          0.43062200957 0.35579514825 0.16197183099 0 0 0.16101694915
          0.3538961039 0.42939481268 0.4447592068 0.49090909091 0.42939481268 0.3538961039
          0.16101694915 0 0 0 0 0
          0 0 0 0 0 0
          0 0.027906976744 0 0 0 0
          0 0 0.027906976744 0 0 0.056338028169
          0.072776280323 0.040669856459 0.014117647059 0.012931034483 0.040669856459 0.072776280323
          0.056338028169 0 0 0.06875 0.11483253589 0.10828025478
          0.0375782881 0.034416826004 0.10828025478 0.11483253589 0.06875 0
          0 0.074303405573 0.16235294118 0.16910229645 0.12371134021 0.11257035647
          0.16910229645 0.16235294118 0.074303405573 0 0 0.084269662921
          0.20043103448 0.25812619503 0.33771106942 0.39242685026 0.25812619503 0.20043103448
          0.084269662921 0 0 0.09375 0.25358851675 0.36093418259
          0.41962421712 0.46845124283 0.36093418259 0.25358851675 0.09375 0
          0 0.10563380282 0.3153638814 0.4019138756 0.44470588235 0.49137931034
          0.4019138756 0.3153638814 0.10563380282 0 0 0.16744186047
          0.36971830986 0.440625 0.44582043344 0.49719101124 0.440625 0.36971830986
          0.16744186047 0 0 0.16759776536 0.3686440678 0.43984962406
          0.44609665428 0.49662162162 0.43984962406 0.3686440678 0.16759776536 0
          0 0 0 0 0 0
          0 0 0 0 0 0.027932960894
          0 0 0 0 0 0
          0.027932960894 0 0 0.055084745763 0.071428571429 0.040345821326
          0.014164305949 0.012987012987 0.040345821326 0.071428571429 0.055084745763 0
          0 0.067669172932 0.11239193084 0.1074168798 0.037688442211 0.034562211982
          0.1074168798 0.11239193084 0.067669172932 0 0 0.074349442379
          0.16147308782 0.16834170854 0.12376237624 0.11286681716 0.16834170854 0.16147308782
          0.074349442379 0 0 0.084459459459 0.2 0.25806451613
          0.33860045147 0.39211618257 0.25806451613 0.2 0.084459459459 0
          0 0.093984962406 0.25360230548 0.36061381074 0.41959798995 0.46774193548
          0.36061381074 0.25360230548 0.093984962406 0 0 0.10593220339
          0.31493506494 0.40057636888 0.4447592068 0.49090909091 0.40057636888 0.31493506494
          0.10593220339 0 0 0.16759776536 0.3686440678 0.43984962406
          0.44609665428 0.49662162162 0.43984962406 0.3686440678 0.16759776536 0
          0 0.1677852349 0.36734693878 0.43891402715 0.44642857143 0.49593495935
          0.43891402715 0.36734693878 0.1677852349 0
        </DataArray>
        <DataArray type="Float64" Name="Displacement" NumberOfComponents="3" format="ascii" RangeMin="1.0637892072" RangeMax="1.0889809848">
          -0.013301316925 1.0822071428 -0.028828440859 -0.011675511988 1.0767929784 -0.028190394504
          -0.010503232749 1.0768186614 -0.028685815656 -0.010643156228 1.0750574082 -0.027348495868
          -0.010933339875 1.0746658639 -0.027725014106 -0.010969316886 1.0752718504 -0.028107532322
          -0.011210690201 1.0733438884 -0.027340563874 -0.011253743289 1.074200563 -0.028715242406
          -0.010073593076 1.0728103428 -0.0281451281 -0.0083431253521 1.0775086617 -0.028491091641
          -0.011726024739 1.0776229234 -0.027599741042 -0.0092058760436 1.0745789944 -0.027689509045
          -0.010548920153 1.0742970349 -0.027333793201 -0.010432217024 1.073662338 -0.027355041884
          -0.010348244526 1.0732147997 -0.027487124831 -0.010403917903 1.0727461652 -0.02775341889
          -0.010277905079 1.0722193065 -0.027500093931 -0.010140483342 1.0712344755 -0.027043764711
          -0.011604415807 1.0708347415 -0.027670837813 -0.0087610991376 1.0725720324 -0.027465414054
          -0.010694356531 1.0754913036 -0.027400147319 -0.0083207804526 1.0754192289 -0.030082259196
          -0.010564917585 1.0758779993 -0.02898306426 -0.0096840802646 1.0744235265 -0.028852083352
          -0.0095835709076 1.0738307139 -0.028628482034 -0.010093649282 1.0744587081 -0.029733077456
          -0.009894107923 1.0729362262 -0.028688634829 -0.0090869887838 1.0731811726 -0.028900441204
          -0.011345977188 1.071653435 -0.030067242487 -0.0092213224396 1.070618735 -0.027567618273
          -0.0090174902889 1.0756220066 -0.029919847711 -0.0083136633566 1.076464537 -0.029820153389
          -0.009257102696 1.0754212918 -0.029543950214 -0.0093454840784 1.0743550954 -0.029467859571
          -0.0091519928665 1.0745022466 -0.029497622885 -0.0096258223264 1.0739798217 -0.029752403692
          -0.0092318688982 1.0728382033 -0.029491679893 -0.00929968766 1.0727847944 -0.029466348959
          -0.010300540841 1.0726548043 -0.029793030582 -0.0097074626406 1.0707937003 -0.029975320265
          -0.0068101176593 1.0764069268 -0.032413060513 -0.0080910263539 1.0756005618 -0.030888985039
          -0.0087567997332 1.0753856563 -0.030395229753 -0.0089856641032 1.0744579832 -0.030527389534
          -0.0089394238629 1.0737565853 -0.030336623999 -0.0091269403288 1.0742389304 -0.030177259572
          -0.0085056128537 1.0727350688 -0.030599332459 -0.0086964333245 1.072735173 -0.030357589037
          -0.0094205170971 1.0719827825 -0.030888018306 -0.010706005582 1.071483851 -0.032399781387
          -0.0064025086931 1.0754974904 -0.033390403289 -0.0070350919603 1.0761607134 -0.031405137046
          -0.0087293250826 1.0754183326 -0.030995992925 -0.0083422364067 1.0744259938 -0.031303378945
          -0.0083495956872 1.0734606896 -0.031254328605 -0.0079212101381 1.0732322917 -0.03137960477
          -0.0079855595312 1.0728854426 -0.031504341415 -0.0076506593629 1.0727426078 -0.030897817517
          -0.0093854147067 1.0723317797 -0.031417855709 -0.0099863231753 1.0705866954 -0.033355535645
          -0.0069745454955 1.0756455399 -0.033337311803 -0.0075900584641 1.0759954277 -0.031667033004
          -0.0080871809538 1.0762113341 -0.031258192296 -0.0082559364426 1.074376892 -0.031817966179
          -0.0065087122912 1.0732704133 -0.031266666889 -0.0088604672408 1.0727513657 -0.031199186389
          -0.0070772319915 1.0728529272 -0.0319085683 -0.007169181221 1.0735243772 -0.031148619118
          -0.0076827722321 1.0721683939 -0.031681687536 -0.008266324645 1.0707812523 -0.033244081807
          -0.0049982279187 1.0739609366 -0.035574726559 -0.01074304674 1.0753809232 -0.031310097479
          -0.0081005866009 1.0751260114 -0.03248751027 -0.0061652449141 1.0748356787 -0.032022648504
          -0.0057026313992 1.0748771806 -0.030275782775 -0.0085342619697 1.0744017106 -0.030313366719
          -0.007915006792 1.0732128532 -0.032080518787 -0.006086513497 1.0724545909 -0.032453764979
          -0.0035846188244 1.0716143462 -0.031280436125 -0.0092008073663 1.0690476363 -0.035493315518
          -0.0062022996586 1.075699093 -0.034616319226 -0.00065882180567 1.0780754071 -0.035859788786
          -0.00805952394 1.0762667375 -0.031927029243 -0.0073490371106 1.0763876167 -0.031822172651
          -0.0082322353288 1.0761406694 -0.032755523242 -0.0047029483192 1.0755625562 -0.032621549658
          -0.0058208275756 1.0746239726 -0.031619827846 -0.0051531890833 1.0734744376 -0.031875044245
          -0.012243355021 1.0742884809 -0.035665445154 -0.0067481083261 1.0707241789 -0.034436799329
          -0.015537602049 1.0681977478 -0.034992887634 -0.0047475009938 1.0808893749 -0.028775062783
          -0.0085261902063 1.0752653981 -0.033679845317 -0.0079258151831 1.0737784779 -0.036318057364
          -0.0062615875562 1.0719490611 -0.037871421623 -0.0061769935359 1.0708514997 -0.038088160864
          -0.0042282504774 1.0721397979 -0.036280104683 -0.0034642266375 1.0724530761 -0.03367442048
          -0.0073522225745 1.0772475196 -0.028624332216 0.0033194871973 1.0632070918 -0.035030532675
          -0.009853432224 1.0771440096 -0.027305300232 -0.01138490862 1.0774431795 -0.027368796122
          -0.01098717298 1.0755488163 -0.026662171295 -0.010884228355 1.0743422213 -0.026166856897
          -0.01111537687 1.0737577689 -0.026037164977 -0.010907764061 1.0733717942 -0.026163394776
          -0.011063759117 1.0727999638 -0.026370688406 -0.010851770838 1.0726483536 -0.02638259054
          -0.01034036039 1.0736867161 -0.027246232132 -0.011966033693 1.072235579 -0.027195799897
          -0.011873348014 1.0803489369 -0.028992590872 -0.010127069584 1.0769580374 -0.027880721328
          -0.010443634749 1.0760710032 -0.027717625523 -0.010182108604 1.0753974296 -0.028182704817
          -0.010276441073 1.0744096377 -0.027512120559 -0.010479651241 1.0743170326 -0.028046527601
          -0.01061077327 1.0735847968 -0.028033278275 -0.010250754925 1.073284916 -0.027660534759
          -0.010596157035 1.0731610339 -0.027840287355 -0.0088682362062 1.0755253582 -0.028974056241
          -0.010062663004 1.0771526034 -0.028561500634 -0.0095294025979 1.076519677 -0.028923255473
          -0.0095911214754 1.0761631567 -0.02903263374 -0.0096129231941 1.075407017 -0.028837780399
          -0.0096916551019 1.0749583698 -0.028765440219 -0.009817377572 1.0744734513 -0.028789369377
          -0.0099776089177 1.0738478843 -0.028895451206 -0.010014817762 1.0733776225 -0.028913400438
          -0.010129265222 1.0726364882 -0.028812606139 -0.0096163466624 1.0722959668 -0.028402225763
          -0.0088475780746 1.0765044512 -0.029525467892 -0.0089435366073 1.0767084144 -0.029793535156
          -0.008908589232 1.0759893129 -0.029764569553 -0.0090544322003 1.0755655426 -0.029884834388
          -0.0091820283111 1.0751223248 -0.029515410864 -0.0093297861338 1.074575822 -0.02952613889
          -0.0094792043367 1.0739286499 -0.029825911202 -0.0095843770496 1.0733499859 -0.029743728655
          -0.0095798042596 1.0728699597 -0.029758807373 -0.0097352475336 1.0714929795 -0.0294135771
          -0.008551463898 1.077626631 -0.030558069126 -0.0083530955442 1.0767196679 -0.03049857898
          -0.0086135165901 1.0760806366 -0.030010777572 -0.0087663376379 1.0754122163 -0.030429927853
          -0.0087009671213 1.0751596458 -0.030276011762 -0.0087509370951 1.0745754007 -0.030335020767
          -0.0086942619598 1.0738106043 -0.030430001236 -0.0088113847161 1.0733936545 -0.029984586584
          -0.0092042126099 1.072927914 -0.030370786164 -0.0088740276042 1.0726961012 -0.030450596195
          -0.0082739434698 1.0768366548 -0.031498764328 -0.0078675896946 1.0764257251 -0.031319319843
          -0.0082620254597 1.0760089899 -0.030936773515 -0.0087754763378 1.0754071199 -0.031032304814
          -0.0083775354 1.0752188803 -0.03107025516 -0.0080053263824 1.0746709372 -0.031062323223
          -0.00755252719 1.0737686942 -0.030888054336 -0.008126001755 1.0732688372 -0.030922137973
          -0.0085571354634 1.0726012789 -0.031282519045 -0.0080965769665 1.0720103944 -0.031379147222
          -0.0080323901692 1.076388262 -0.03192564746 -0.0073477830723 1.0763731283 -0.032232919201
          -0.007944235344 1.0759055486 -0.03194523232 -0.0088009752251 1.0752330542 -0.032583025448
          -0.0081457275928 1.0750931155 -0.031897165786 -0.0071495491905 1.0744266369 -0.031919997174
          -0.0065515658309 1.0736133216 -0.032506613174 -0.0074063942998 1.07317274 -0.031855921547
          -0.0079680740014 1.0725806343 -0.032161811971 -0.0072965992871 1.0714134694 -0.031906759044
          -0.0066728738976 1.0767432655 -0.033956506105 -0.0076710120909 1.0762992592 -0.032765486743
          -0.0079724436235 1.0759290183 -0.032420005237 -0.0077974235467 1.0758132741 -0.032526433918
          -0.0064095624487 1.0750083722 -0.031381698606 -0.0078719024633 1.0745116233 -0.031330074621
          -0.0064625503599 1.0742049655 -0.0324776409 -0.0061775397151 1.0731856204 -0.032352620016
          -0.0065233393195 1.0724671725 -0.0327103727 -0.0075524639574 1.0718522729 -0.033989976719
          -0.0068249934131 1.0775273735 -0.032724228719 -0.0078180209408 1.0763508045 -0.032397446112
          -0.0076540787992 1.0756103617 -0.033066304711 -0.008477135451 1.0755682229 -0.033469213394
          -0.0088447718926 1.0763131047 -0.033446055345 -0.0042932444408 1.0757557834 -0.033438492829
          -0.0046852758489 1.0739300787 -0.033414413901 -0.0054981323083 1.0728743975 -0.033004682615
          -0.0053080490189 1.0725285559 -0.0323393598 -0.0062618165085 1.0725251007 -0.032737475912
          -0.011269132963 1.0730225842 -0.03264693914 -0.010485836154 1.0734624875 -0.035440767556
          -0.0094439204746 1.0752588245 -0.035876701326 -0.0056190020819 1.0760033093 -0.033565653843
          -0.0081805514438 1.0781346433 -0.029787720957 -0.0038727176527 1.0775524534 -0.029584584271
          -0.006503480893 1.0742004888 -0.033762400722 -0.0026094709895 1.0723393829 -0.035876065895
          -0.0014394426352 1.0694874797 -0.035442434367 -0.00073646345591 1.067966497 -0.032579584537
          -0.0098774078918 1.0767935019 -0.027148732255 -0.01026953821 1.0772016016 -0.027298203886
          -0.010897076801 1.0769376546 -0.026914758999 -0.011059436577 1.0760147804 -0.026518542664
          -0.010811340272 1.0761132 -0.027737868866 -0.010778858704 1.0757517707 -0.027605629053
          -0.010850089843 1.0744494221 -0.026647440831 -0.010915584679 1.0742293755 -0.026943771224
          -0.011613048067 1.073432855 -0.027179403102 -0.01200547421 1.0719646857 -0.027023206068
          -0.009187074364 1.0772936515 -0.02843939502 -0.010532246123 1.0777443592 -0.027891610187
          -0.010672370928 1.0774850666 -0.028073750344 -0.010379061872 1.0761769187 -0.027758701287
          -0.01035910671 1.0757089353 -0.027850265669 -0.010378805756 1.0752139903 -0.027909391766
          -0.01036396792 1.0744792387 -0.027708426071 -0.010087871311 1.0747529401 -0.028033958565
          -0.010141393108 1.0739234175 -0.027780429267 -0.011620639739 1.0723469441 -0.028403801209
          -0.0099003835898 1.0784452709 -0.028997859823 -0.0094331935526 1.0772245227 -0.028792949385
          -0.0095670202532 1.076875871 -0.028957556992 -0.0097257578704 1.0764232916 -0.028888556748
          -0.0097405013633 1.0758099944 -0.028727304513 -0.0098178373885 1.0752100925 -0.028831990383
          -0.0099221339944 1.0748295895 -0.028861530605 -0.010044679058 1.0741684211 -0.02886123972
          -0.010211355795 1.0734214375 -0.028731298277 -0.009770433804 1.0735268069 -0.028827224452
          -0.0090477304341 1.0779996918 -0.029873505849 -0.0094700271961 1.0773042075 -0.029356577068
          -0.0091986546678 1.0768439266 -0.029543520286 -0.0092510084955 1.0762891897 -0.029532922958
          -0.0092364552577 1.0758992955 -0.029455935405 -0.009324954899 1.0752639836 -0.029472756051
          -0.0092578975887 1.0746854792 -0.029520853992 -0.0093377871983 1.0741351045 -0.029487562889
          -0.0091324772872 1.0735017794 -0.029323462273 -0.0095511719511 1.0730813038 -0.029728768483
          -0.0088066118145 1.0777834523 -0.030310437226 -0.0089897667907 1.0773008226 -0.030107508436
          -0.0086881980754 1.0767170296 -0.030215624535 -0.0086777772905 1.0763879759 -0.030244728941
          -0.0086779076418 1.0758716171 -0.030189675119 -0.008678739929 1.0753453909 -0.030161588471
          -0.008771208916 1.0747224978 -0.030216598792 -0.0087659990649 1.0739934719 -0.030159887056
          -0.0085376533973 1.0735185603 -0.030048548266 -0.0087453425661 1.072893539 -0.030204424381
          -0.0083440106771 1.0773474397 -0.031179169691 -0.0081773295511 1.0771612971 -0.031130151872
          -0.008268706542 1.0767113371 -0.030925831626 -0.0082907989514 1.0765024323 -0.030953126867
          -0.0088658829803 1.0757750238 -0.031341473785 -0.007452926718 1.0752264987 -0.031326518579
          -0.0081303889643 1.0748406547 -0.030902100146 -0.0081019856064 1.0740166627 -0.030865511675
          -0.0082063204436 1.0733708976 -0.031039550097 -0.0080689276956 1.0723944151 -0.031113618565
          -0.0074531874551 1.0777798764 -0.03234247865 -0.0085328481256 1.077015906 -0.031549172215
          -0.0087049936852 1.0766147831 -0.031733287797 -0.0086034895917 1.0762146675 -0.031770356424
          -0.0083268023205 1.0759996064 -0.031908190818 -0.0069711002785 1.0754474216 -0.031925912836
          -0.0067748846576 1.0745762085 -0.031760655925 -0.0066555345426 1.0739212674 -0.031670759384
          -0.00682423602 1.07319654 -0.031489300631 -0.0079390215455 1.0729138589 -0.032272462305
          -0.007731832847 1.0777877882 -0.032108638986 -0.0074499174732 1.0771099459 -0.032544753045
          -0.006650224038 1.0768414128 -0.032514013468 -0.0078540729961 1.0763151721 -0.032481886418
          -0.0074923343828 1.0761139022 -0.03213074942 -0.0066894462426 1.0753600808 -0.032262622288
          -0.0063476845663 1.0747158972 -0.032445350696 -0.0075671837002 1.0741674884 -0.032395521105
          -0.0067628233991 1.0732659656 -0.032441180425 -0.0064619151946 1.072852217 -0.032054239035
          -0.0085839754186 1.0760736825 -0.033120800139 -0.0075392490844 1.0775960369 -0.032675359999
          -0.0079491685351 1.0766277489 -0.032983027345 -0.0079242633634 1.0766726339 -0.033088781134
          -0.0071682908257 1.0762985451 -0.032751755338 -0.0060099336471 1.0757987351 -0.032667784644
          -0.0051570963892 1.0750402316 -0.033080177698 -0.0052159655406 1.0739215079 -0.032937907307
          -0.0055737043198 1.0737796237 -0.032654177146 -0.0044197619374 1.0709820062 -0.033031542521
          -0.0037364349914 1.079439822 -0.03491611665 -0.0056848250181 1.0774424622 -0.034673686083
          -0.008418309673 1.0747904569 -0.036235386646 -0.0056505584336 1.0743410127 -0.035335030243
          -0.0044180807919 1.074158531 -0.033678983469 -0.0078158291366 1.0735299482 -0.033657588614
          -0.0062858826751 1.0727743562 -0.035271462801 -0.0035493345707 1.0721566421 -0.036153651274
          -0.0063248719323 1.0736265355 -0.034585795037 -0.0081880817101 1.0745308893 -0.034881116972
          -0.0096775998002 1.077194684 -0.026824368573 -0.010531240844 1.0778943006 -0.026957663316
          -0.010650401942 1.0778548988 -0.027727559976 -0.010597279104 1.07693583 -0.027092062668
          -0.010837370472 1.0762894998 -0.026913031997 -0.010809602294 1.0759400229 -0.026937279144
          -0.011374532703 1.0751582322 -0.027019009392 -0.01120084906 1.0751171024 -0.027687056761
          -0.011387573816 1.0740332265 -0.026871587519 -0.012157564349 1.0724132161 -0.026740725722
          -0.00996980519 1.0782437566 -0.027931103658 -0.010786022269 1.0784691972 -0.027734563975
          -0.010306676515 1.0775767401 -0.027896985964 -0.010304859155 1.0772355475 -0.027996074603
          -0.010348231976 1.0765815824 -0.027953685756 -0.010384508837 1.0760485388 -0.027922917072
          -0.010407637524 1.0756857074 -0.028016885253 -0.010495420829 1.0747953639 -0.027847132785
          -0.0099722223034 1.0746235842 -0.027683766848 -0.010820202992 1.0733021604 -0.027875952977
          -0.010132742741 1.0788043999 -0.028694927392 -0.0098336729679 1.0780015337 -0.028652030428
          -0.0098047052947 1.0775801713 -0.02880035352 -0.0097326212379 1.077087378 -0.028812955187
          -0.0098036478948 1.0765588248 -0.028775300427 -0.0098666930397 1.0760254702 -0.028752687403
          -0.0099020807924 1.0754792562 -0.028776780542 -0.0098602432363 1.0748659556 -0.028786350883
          -0.0098754641555 1.0742240303 -0.028615129522 -0.0096550741707 1.0738327599 -0.028637840999
          -0.0093892346006 1.0786054517 -0.029320571243 -0.0092089439376 1.0779323504 -0.029490771641
          -0.0092517827749 1.077526273 -0.029482167074 -0.0093060044578 1.0771571728 -0.029393879807
          -0.0092429858015 1.0766749525 -0.029511678434 -0.0092579314208 1.0760496224 -0.029480867854
          -0.0092219163767 1.0755595259 -0.029356646907 -0.0093183464307 1.074821802 -0.029445720691
          -0.0094222547866 1.0741325821 -0.029435680132 -0.0092821202192 1.0736910069 -0.029269107539
          -0.0088181737174 1.0784281674 -0.030203252776 -0.0089700001696 1.0779426196 -0.030205800279
          -0.0088615095026 1.0774889109 -0.030279854897 -0.0087412137745 1.0769632514 -0.030296120371
          -0.0087484104206 1.0765551605 -0.030190742054 -0.0087279847282 1.0760689185 -0.030188006628
          -0.0087014788004 1.0753811957 -0.030249558455 -0.0086520617977 1.0747806934 -0.030219988254
          -0.008544637552 1.0741432071 -0.030135874334 -0.0086832101557 1.0735586683 -0.030136567205
          -0.0083286710945 1.0786497089 -0.030982117559 -0.0080734957794 1.0779470131 -0.031004907984