<?xml version="1.0"?>
<VTKFile type="UnstructuredGrid" version="0.1" byte_order="LittleEndian" compressor="vtkZLibDataCompressor">
  <UnstructuredGrid>
    <FieldData>
      <DataArray type="Float64" Name="TIME" NumberOfTuples="1" format="ascii" RangeMin="0.24037345926" RangeMax="0.24037345926">
        0.24037345926
      </DataArray>
    </FieldData>
    <Piece NumberOfPoints="1000" NumberOfCells="0">
      <PointData>
        <DataArray type="Float64" Name="Damage" format="ascii" RangeMin="0" RangeMax="0.49719101124">
          0 0 0 0 0 0
          0 0 0 0 0 0.027932960894
          0 0 0 0 0 0
          0.027932960894 0 0 0.055084745763 0.071428571429 0.040345821326
          0.014164305949 0.012987012987 0.040345821326 0.071428571429 0.055084745763 0
          0 0.067669172932 0.11239193084 0.1074168798 0.037688442211 0.034562211982
          0.1074168798 0.11239193084 0.067669172932 0 0 0.074349442379
          0.16147308782 0.16834170854 0.12376237624 0.11286681716 0.16834170854 0.16147308782
          0.074349442379 0 0 0.084459459459 0.2 0.25806451613
          0.33860045147 0.39211618257 0.25806451613 0.2 0.084459459459 0
          0 0.093984962406 0.25360230548 0.36061381074 0.41959798995 0.46774193548
          0.36061381074 0.25360230548 0.093984962406 0 0 0.10593220339
          0.31493506494 0.40057636888 0.4447592068 0.49090909091 0.40057636888 0.31493506494
          0.10593220339 0 0 0.16759776536 0.3686440678 0.43984962406
          0.44609665428 0.49662162162 0.43984962406 0.3686440678 0.16759776536 0
          0 0.1677852349 0.36734693878 0.43891402715 0.44642857143 0.49593495935
          0.43891402715 0.36734693878 0.1677852349 0 0 0
          0 0 0 0 0 0
          0 0 0 0.027906976744 0 0
          0 0 0 0 0.027906976744 0
          0 0.056338028169 0.072776280323 0.040669856459 0.014117647059 0.012931034483
          0.040669856459 0.072776280323 0.056338028169 0 0 0.06875
          0.11483253589 0.10828025478 0.0375782881 0.034416826004 0.10828025478 0.11483253589
          0.06875 0 0 0.074303405573 0.16235294118 0.16910229645
          0.12371134021 0.11257035647 0.16910229645 0.16235294118 0.074303405573 0
          0 0.084269662921 0.20043103448 0.25812619503 0.33771106942 0.39242685026
          0.25812619503 0.20043103448 0.084269662921 0 0 0.09375
          0.25358851675 0.36093418259 0.41962421712 0.46845124283 0.36093418259 0.25358851675
          0.09375 0 0 0.10563380282 0.3153638814 0.4019138756
          0.44470588235 0.49137931034 0.4019138756 0.3153638814 0.10563380282 0
          0 0.16744186047 0.36971830986 0.440625 0.44582043344 0.49719101124
          0.440625 0.36971830986 0.16744186047 0 0 0.16759776536
          0.3686440678 0.43984962406 0.44609665428 0.49662162162 0.43984962406 0.3686440678
          0.16759776536 0 0 0 0 0
          0 0 0 0 0 0
          0 0.024647887324 0 0 0 0
          0 0 0.024647887324 0 0 0.051212938005
          0.06875 0.038817005545 0.012635379061 0.011666666667 0.038817005545 0.06875
          0.051212938005 0 0 0.064593301435 0.10905730129 0.10491803279
          0.036858974359 0.034023668639 0.10491803279 0.10905730129 0.064593301435 0
          0 0.070588235294 0.15523465704 0.16506410256 0.12283464567 0.11271676301
          0.16506410256 0.15523465704 0.070588235294 0 0 0.081896551724
          0.19333333333 0.25443786982 0.33959537572 0.38985313752 0.25443786982 0.19333333333
          0.081896551724 0 0 0.093301435407 0.24768946396 0.35573770492
          0.41987179487 0.46449704142 0.35573770492 0.24768946396 0.093301435407 0
          0 0.10781671159 0.30833333333 0.39556377079 0.4440433213 0.48666666667
          0.39556377079 0.30833333333 0.10781671159 0 0 0.16197183099
          0.35579514825 0.43062200957 0.44470588235 0.49137931034 0.43062200957 0.35579514825
          0.16197183099 0 0 0.16101694915 0.3538961039 0.42939481268
          0.4447592068 0.49090909091 0.42939481268 0.3538961039 0.16101694915 0
          0 0 0 0 0 0
          0 0 0 0 0 0.025
          0 0 0 0 0 0
          0.025 0 0 0.05023923445 0.068391866913 0.039344262295
          0.012820512821 0.011834319527 0.039344262295 0.068391866913 0.05023923445 0
          0 0.063694267516 0.10819672131 0.10465116279 0.036984352774 0.034120734908
          0.10465116279 0.10819672131 0.063694267516 0 0 0.070981210856
          0.15544871795 0.16500711238 0.12290502793 0.11282051282 0.16500711238 0.15544871795
          0.070981210856 0 0 0.082217973231 0.19378698225 0.25459317585
          0.33974358974 0.38981042654 0.25459317585 0.19378698225 0.082217973231 0
          0 0.093418259023 0.24918032787 0.35610465116 0.41963015647 0.46456692913
          0.35610465116 0.24918032787 0.093418259023 0 0 0.10765550239
          0.30868761553 0.39508196721 0.44391025641 0.48668639053 0.39508196721 0.30868761553
          0.10765550239 0 0 0.1625 0.35645933014 0.43099787686
          0.44467640919 0.4913957935 0.43099787686 0.35645933014 0.1625 0
          0 0.16165413534 0.35446685879 0.42966751918 0.44472361809 0.49078341014
          0.42966751918 0.35446685879 0.16165413534 0 0 0
          0 0 0 0 0 0
          0 0 0 0.02786377709 0 0
          0 0 0 0 0.02786377709 0
          0 0.054117647059 0.070397111913 0.040064102564 0.014173228346 0.013005780347
          0.040064102564 0.070397111913 0.054117647059 0 0 0.066805845511
          0.11057692308 0.106685633 0.037709497207 0.034615384615 0.106685633 0.11057692308
          0.066805845511 0 0 0.074226804124 0.16062992126 0.16759776536
          0.12362637363 0.11292346299 0.16759776536 0.16062992126 0.074226804124 0
          0 0.084427767355 0.19942196532 0.25769230769 0.33877038896 0.39145496536
          0.25769230769 0.19942196532 0.084427767355 0 0 0.093945720251
          0.25320512821 0.35988620199 0.41899441341 0.46666666667 0.35988620199 0.25320512821
          0.093945720251 0 0 0.10588235294 0.31407942238 0.39903846154
          0.44409448819 0.48988439306 0.39903846154 0.31407942238 0.10588235294 0
          0 0.16718266254 0.36705882353 0.43841336117 0.44536082474 0.49530956848
          0.43841336117 0.36705882353 0.16718266254 0 0 0.16728624535
          0.36543909348 0.43718592965 0.44554455446 0.49435665914 0.43718592965 0.36543909348
          0.16728624535 0 0 0 0 0
          0 0 0 0 0 0
          0 0.025280898876 0 0 0 0
          0 0 0.025280898876 0 0 0.049568965517
          0.066666666667 0.038461538462 0.013005780347 0.012016021362 0.038461538462 0.066666666667
          0.049568965517 0 0 0.06309751434 0.1050295858 0.10367454068
          0.037179487179 0.034360189573 0.10367454068 0.1050295858 0.06309751434 0
          0 0.071294559099 0.15462427746 0.1641025641 0.12296110414 0.11316397229
          0.1641025641 0.15462427746 0.071294559099 0 0 0.082616179002
          0.19359145527 0.25473933649 0.34064665127 0.38930481283 0.25473933649 0.19359145527
          0.082616179002 0 0 0.093690248566 0.24852071006 0.35564304462
          0.41923076923 0.46327014218 0.35564304462 0.24852071006 0.093690248566 0
          0 0.10775862069 0.30833333333 0.39349112426 0.4436416185 0.48598130841
          0.39349112426 0.30833333333 0.10775862069 0 0 0.16292134831
          0.35560344828 0.43021032505 0.44465290807 0.49053356282 0.43021032505 0.35560344828
          0.16292134831 0 0 0.16216216216 0.35324675325 0.42857142857
          0.44469525959 0.48962655602 0.42857142857 0.35324675325 0.16216216216 0
          0 0 0 0 0 0
          0 0 0 0 0 0.025
          0 0 0 0 0 0
          0.025 0 0 0.05023923445 0.068391866913 0.039344262295
          0.012820512821 0.011834319527 0.039344262295 0.068391866913 0.05023923445 0
          0 0.063694267516 0.10819672131 0.10465116279 0.036984352774 0.034120734908
          0.10465116279 0.10819672131 0.063694267516 0 0 0.070981210856
          0.15544871795 0.16500711238 0.12290502793 0.11282051282 0.16500711238 0.15544871795
          0.070981210856 0 0 0.082217973231 0.19378698225 0.25459317585
          0.33974358974 0.38981042654 0.25459317585 0.19378698225 0.082217973231 0
          0 0.093418259023 0.24918032787 0.35610465116 0.41963015647 0.46456692913
          0.35610465116 0.24918032787 0.093418259023 0 0 0.10765550239
          0.30868761553 0.39508196721 0.44391025641 0.48668639053 0.39508196721 0.30868761553
          0.10765550239 0 0 0.1625 0.35645933014 0.43099787686
          0.44467640919 0.4913957935 0.43099787686 0.35645933014 0.1625 0
          0 0.16165413534 0.35446685879 0.42966751918 0.44472361809 0.49078341014
          0.42966751918 0.35446685879 0.16165413534 0 0 0
          0 0 0 0 0 0
          0 0 0 0.024647887324 0 0
          0 0 0 0 0.024647887324 0
          0 0.051212938005 0.06875 0.038817005545 0.012635379061 0.011666666667
          0.038817005545 0.06875 0.051212938005 0 0 0.064593301435
          0.10905730129 0.10491803279 0.036858974359 0.034023668639 0.10491803279 0.10905730129
          0.064593301435 0 0 0.070588235294 0.15523465704 0.16506410256
          0.12283464567 0.11271676301 0.16506410256 0.15523465704 0.070588235294 0
          0 0.081896551724 0.19333333333 0.25443786982 0.33959537572 0.38985313752
          0.25443786982 0.19333333333 0.081896551724 0 0 0.093301435407
          0.24768946396 0.35573770492 0.41987179487 0.46449704142 0.35573770492 0.24768946396
          0.093301435407 0 0 0.10781671159 0.30833333333 0.39556377079
          0.4440433213 0.48666666667 0.39556377079 0.30833333333 0.10781671159 0
          0 0.16197183099 0.35579514825 0.43062200957 0.44470588235 0.49137931034
          0.43062200957 0.35579514825 0.16197183099 0 0 0.16101694915
          0.3538961039 0.42939481268 0.4447592068 0.49090909091 0.42939481268 0.3538961039
          0.16101694915 0 0 0 0 0
          0 0 0 0 0 0
          0 0.027906976744 0 0 0 0
          0 0 0.027906976744 0 0 0.056338028169
          0.072776280323 0.040669856459 0.014117647059 0.012931034483 0.040669856459 0.072776280323
          0.056338028169 0 0 0.06875 0.11483253589 0.10828025478
          0.0375782881 0.034416826004 0.10828025478 0.11483253589 0.06875 0
          0 0.074303405573 0.16235294118 0.16910229645 0.12371134021 0.11257035647
          0.16910229645 0.16235294118 0.074303405573 0 0 0.084269662921
          0.20043103448 0.25812619503 0.33771106942 0.39242685026 0.25812619503 0.20043103448
          0.084269662921 0 0 0.09375 0.25358851675 0.36093418259
          0.41962421712 0.46845124283 0.36093418259 0.25358851675 0.09375 0
          0 0.10563380282 0.3153638814 0.4019138756 0.44470588235 0.49137931034
          0.4019138756 0.3153638814 0.10563380282 0 0 0.16744186047
          0.36971830986 0.440625 0.44582043344 0.49719101124 0.440625 0.36971830986
          0.16744186047 0 0 0.16759776536 0.3686440678 0.43984962406
          0.44609665428 0.49662162162 0.43984962406 0.3686440678 0.16759776536 0
          0 0 0 0 0 0
          0 0 0 0 0 0.027932960894
          0 0 0 0 0 0
          0.027932960894 0 0 0.055084745763 0.071428571429 0.040345821326
          0.014164305949 0.012987012987 0.040345821326 0.071428571429 0.055084745763 0
          0 0.067669172932 0.11239193084 0.1074168798 0.037688442211 0.034562211982
          0.1074168798 0.11239193084 0.067669172932 0 0 0.074349442379
          0.16147308782 0.16834170854 0.12376237624 0.11286681716 0.16834170854 0.16147308782
          0.074349442379 0 0 0.084459459459 0.2 0.25806451613
          0.33860045147 0.39211618257 0.25806451613 0.2 0.084459459459 0
          0 0.093984962406 0.25360230548 0.36061381074 0.41959798995 0.46774193548
          0.36061381074 0.25360230548 0.093984962406 0 0 0.10593220339
          0.31493506494 0.40057636888 0.4447592068 0.49090909091 0.40057636888 0.31493506494
          0.10593220339 0 0 0.16759776536 0.3686440678 0.43984962406
          0.44609665428 0.49662162162 0.43984962406 0.3686440678 0.16759776536 0
          0 0.1677852349 0.36734693878 0.43891402715 0.44642857143 0.49593495935
          0.43891402715 0.36734693878 0.1677852349 0
        </DataArray>
        <DataArray type="Float64" Name="Displacement" NumberOfComponents="3" format="ascii" RangeMin="1.6723206416" RangeMax="1.6901729851">
          -0.0068905907821 1.6868418903 -0.012053845351 -0.0045034148786 1.6823445566 -0.0096624198639
          -0.0047785602169 1.6813368584 -0.010174496502 -0.004449159128 1.6806409923 -0.010069304475
          -0.0042371412954 1.6798644665 -0.0096735754786 -0.003954859633 1.679333517 -0.0091932543327
          -0.0037550759083 1.6799397375 -0.0099826123235 -0.0034656203682 1.6802786433 -0.010172802165
          -0.0036750558011 1.6808467446 -0.0095972658923 -0.0011631564659 1.6850875695 -0.011909078165
          -0.0043349910685 1.6826671447 -0.0096630709311 -0.0041918095392 1.6828448477 -0.011169140743
          -0.003935210799 1.6812513431 -0.010469357962 -0.0041077090983 1.6802610252 -0.0099235622113
          -0.0038844760254 1.6800215959 -0.010029393964 -0.0039346251329 1.6798854458 -0.010176904661
          -0.003734642293 1.6796984243 -0.010002295663 -0.0037997302555 1.6800752871 -0.010306385787
          -0.0035464248494 1.6814416351 -0.01116118917 -0.0033748400596 1.6807369184 -0.0095774915384
          -0.0043327856584 1.6824553376 -0.010434407545 -0.0036576982447 1.6816123694 -0.010302313458
          -0.0044031352962 1.6808782116 -0.010257580318 -0.0035392681446 1.6800492711 -0.01037519371
          -0.0036250563406 1.6805763886 -0.010998603178 -0.0036964638954 1.680580527 -0.011141917427
          -0.00380392387 1.6793361311 -0.010285414328 -0.0029759514404 1.6797695787 -0.010249688878
          -0.0037248634384 1.6801869285 -0.010316457802 -0.0029691473487 1.6805662288 -0.010382693092
          -0.0036127918156 1.6825991248 -0.010660210486 -0.0033133495206 1.6813245967 -0.010658874505
          -0.0035252268271 1.6811745673 -0.010813818346 -0.0034930829459 1.6805490334 -0.010642378132
          -0.0034907749311 1.6807152084 -0.01137720174 -0.0034093823591 1.6804913927 -0.011361260897
          -0.0035459957444 1.6799661655 -0.010752174867 -0.0034000910655 1.6800484495 -0.010787077912
          -0.003645890603 1.6798586002 -0.010681230333 -0.0033299119014 1.6807615655 -0.010666576371
          -0.0035071996601 1.6824135845 -0.010515828627 -0.0028106743409 1.6811872117 -0.011036158322
          -0.0028701501239 1.6814463501 -0.011122954163 -0.0034567401384 1.6805987918 -0.011339760192
          -0.0031512531945 1.6804369489 -0.011406553292 -0.0033891389671 1.6802539873 -0.011462815893
          -0.0029923234971 1.6799523988 -0.011427614194 -0.0036178336583 1.6803520419 -0.011123709984
          -0.003735623062 1.679719606 -0.011030103606 -0.0030220165231 1.6805802631 -0.010534416797
          -0.0032388805767 1.6827720053 -0.01102047005 -0.0026764316552 1.681335389 -0.011811588875
          -0.0022788335552 1.6817742486 -0.010939184403 -0.0027032561747 1.6810180159 -0.011068233837
          -0.0044581068334 1.6804058499 -0.01283085668 -0.0016295146258 1.6802283548 -0.012850500337
          -0.0033893240567 1.6804644211 -0.011115271963 -0.003803301987 1.6807026135 -0.010994789607
          -0.003438955296 1.679841414 -0.011810448746 -0.0028391693693 1.6809105893 -0.011022033461
          -0.0023284714076 1.6817404128 -0.012075126709 -0.0030993190303 1.6814352868 -0.011405659337
          -0.0023762960501 1.6814156605 -0.011559770327 -0.0011179184771 1.6806168971 -0.011838066036
          0.0008647954579 1.6795074729 -0.010043953573 -0.0066092865417 1.6793142979 -0.0099501024982
          -0.0045758361749 1.6799951911 -0.011836578279 -0.0032981573533 1.6803912717 -0.011539499315
          -0.0026093409898 1.6799257747 -0.011425899344 -0.003388979633 1.679888005 -0.012100411516
          -0.0023656418349 1.6806698995 -0.012834436663 -0.0050292318955 1.6817956705 -0.010130553044
          -0.00016351240475 1.6812523593 -0.012321295147 0.0019537831571 1.6815887799 -0.010341236754
          -0.0019330272909 1.680978253 -0.012174603592 -0.0033672368506 1.6807726189 -0.012122270374
          -0.0072418785879 1.6809853869 -0.010305528731 -0.005073293141 1.680215755 -0.012284851324
          -8.9960673849e-05 1.6803138578 -0.010023077919 -0.0029758675885 1.6787054519 -0.012907657275
          -0.00085754169964 1.6832687542 -0.012618327577 -0.0010044691066 1.6782885135 -0.014548278673
          -0.0040577434153 1.6792119529 -0.013739576543 -0.0027337005502 1.6800194697 -0.012785918989
          -0.0017790985877 1.6796840143 -0.01137848454 -0.0030081288796 1.6794999575 -0.011441783348
          -0.0020479591505 1.679344171 -0.012838699414 -0.00079988496386 1.6780489787 -0.013784416031
          -0.0039043072698 1.6767694082 -0.014561680482 -0.0040060283872 1.6813261402 -0.01264471544
          -0.0017397833734 1.6740539694 -0.019888222826 -0.0019983860712 1.678398523 -0.01536719161
          -0.0017465310121 1.6798105305 -0.014631823803 -0.0040336824991 1.676860461 -0.017381359966
          -0.0042582699662 1.6869903574 -0.0070524808559 0.00017194505014 1.6867727447 -0.0072001062588
          -0.00032015138171 1.6760797398 -0.017473101802 -0.0026867657639 1.6787455766 -0.014627864405
          -0.002418975772 1.6766809653 -0.01560394115 -0.0028231036439 1.6721987384 -0.019993435108
          -0.0043659994029 1.6826273466 -0.0098667503041 -0.0047880541054 1.6823193524 -0.010656977924
          -0.0044154129863 1.6814567257 -0.010367274161 -0.0040317739045 1.6807622663 -0.0098106309323
          -0.0042524170404 1.6805847562 -0.0099232352402 -0.0041333187395 1.6805321163 -0.010048091802
          -0.0041769306824 1.6801973614 -0.0099065835641 -0.0038050577513 1.6803356179 -0.010215470166
          -0.003381545537 1.6809025228 -0.010668232682 -0.0037436054048 1.6807093615 -0.0097965514961
          -0.0043683620373 1.6830705099 -0.011009971288 -0.0041271797459 1.6824614927 -0.010511218272
          -0.0040995982145 1.6809954 -0.0099062819517 -0.0038633550914 1.6808663804 -0.010404131788
          -0.0038643584278 1.6804629646 -0.010130817723 -0.0039705076185 1.6802152569 -0.010123180993
          -0.0039257505942 1.6801961957 -0.010367548569 -0.0036974006879 1.6799404795 -0.009930309476
          -0.0036225684601 1.6810156046 -0.010488303618 -0.0033439274523 1.6811734906 -0.01090619369
          -0.0042247241217 1.6819375696 -0.0099564193303 -0.0040244767576 1.6819672145 -0.010516726857
          -0.0034463837508 1.6814368916 -0.0112141611 -0.0035941144155 1.6809871604 -0.010873676648
          -0.0036827004487 1.6805545658 -0.010697960756 -0.0036391881043 1.6803336957 -0.010652565648
          -0.0037553274953 1.6803209675 -0.010836433294 -0.003913552384 1.6803560591 -0.011194743762
          -0.0033067877526 1.6804782259 -0.010502119003 -0.0031210298393 1.6800915889 -0.0099501364668
          -0.0040006084634 1.6819007674 -0.010722195646 -0.0036834083857 1.6818595168 -0.010945359061
          -0.0032560965358 1.6814559199 -0.011152221145 -0.0036282939566 1.6808019165 -0.010613629722
          -0.0035016706553 1.6804624364 -0.011016798936 -0.003444204002 1.6802960491 -0.011085339949
          -0.0032870093456 1.6801712204 -0.010603071377 -0.0036720917358 1.6804099286 -0.0111561118
          -0.0032179034647 1.6803523554 -0.010889995 -0.0029848819347 1.6799872148 -0.010661379718
          -0.0036562814271 1.6826459785 -0.011428976477 -0.0034906529174 1.6815700483 -0.011467428295
          -0.0031401771814 1.6814662534 -0.011284822941 -0.0031632578028 1.6809688687 -0.011450526032
          -0.0032239641811 1.6805803626 -0.011399164049 -0.0032532636627 1.6804099706 -0.01137405427
          -0.0033281928522 1.6803320003 -0.011408452422 -0.0033851231799 1.6804257887 -0.011307751093
          -0.0029834094039 1.68006338 -0.01141303865 -0.0028818459299 1.6807754132 -0.011380514647
          -0.0026759795779 1.6824203497 -0.011456654613 -0.0029873457587 1.68171506 -0.011271856667
          -0.0028711061291 1.6814462593 -0.011483234081 -0.0027770416077 1.6810664331 -0.011494509925
          -0.0025350307975 1.6806226439 -0.011438631731 -0.0035491686763 1.6804487804 -0.011436755207
          -0.0032680465497 1.6804271245 -0.011435656752 -0.0032277245891 1.6804095327 -0.011451172004
          -0.0030708500133 1.6802312117 -0.011228559089 -0.0034394804329 1.6805220825 -0.011398199508
          -0.0024202146998 1.6818418941 -0.012093231648 -0.0027325889546 1.6818504869 -0.011289673804
          -0.0023333742876 1.6815658622 -0.011757048121 -0.0013752021976 1.6811808589 -0.011450137333
          -0.0022729458185 1.680744751 -0.011760387181 -0.0033435009607 1.6805785722 -0.011697507812
          -0.0042587723074 1.6805602743 -0.011450894469 -0.0032880983181 1.6805224746 -0.011746778821
          -0.0029295908397 1.6803610539 -0.01127949152 -0.0032559129627 1.6799114507 -0.012030137024
          -0.0027334532417 1.6826102506 -0.010711809266 -0.0023689326446 1.6814316328 -0.012220218195
          -0.0018974387202 1.6813556315 -0.012347570376 -0.0018085511272 1.6810459937 -0.011970089843
          -0.0017480967402 1.6816186403 -0.01185395672 -0.0034957979905 1.6813841006 -0.011848877395
          -0.003482845981 1.6804122655 -0.011945393569 -0.0033337344214 1.6803151548 -0.012313152727
          -0.0028681311273 1.6799592411 -0.012187406169 -0.002501417935 1.6807206695 -0.010619158495
          -0.00085300027129 1.6845505769 -0.012308968276 -0.0015677379639 1.6832510451 -0.011559185174
          -0.0013868691708 1.6818138218 -0.012703677475 -0.0016807542279 1.6818710442 -0.012114698138
          -0.0012416451874 1.6812790602 -0.012147339971 -0.0035021206387 1.6811283745 -0.012158615406
          -0.0031087340048 1.6812505911 -0.01209048229 -0.0034133902188 1.6807451012 -0.012659396858
          -0.0032471236641 1.6817660402 -0.011510227854 -0.0039766804611 1.6826062846 -0.012306563348
          -0.0040639671364 1.6811632245 -0.011442692079 -0.0013707989033 1.6806852933 -0.01462792057
          -0.0037611487497 1.6811884718 -0.013365136467 -0.0044399413828 1.6821233427 -0.012772349241
          -0.001480528581 1.6834793621 -0.011064558491 -0.0030078905247 1.68322002 -0.011064631252
          8.8133726004e-05 1.6814890301 -0.012735910897 -0.00062727858504 1.6801413699 -0.013305767781
          -0.0028721212389 1.6791060793 -0.014659908926 -0.00060779504534 1.67948526 -0.011517940254
          -0.0050485376352 1.6828794043 -0.010425080367 -0.0049894562273 1.6823511062 -0.01007983935
          -0.004439270341 1.6814964326 -0.010228916791 -0.0040371561068 1.6808888503 -0.0098934397164
          -0.0041410485571 1.6800438443 -0.0091597033442 -0.0041123784958 1.6799080423 -0.009086787744
          -0.0041570177421 1.680237237 -0.009843158997 -0.0037725746383 1.6804684262 -0.010261297312
          -0.0032780834204 1.6808454341 -0.010081810247 -0.003054449312 1.6810978058 -0.010440354385
          -0.0041367583252 1.6825885663 -0.010323216937 -0.0039760806525 1.6818577881 -0.010410817784
          -0.0037149536499 1.6810640828 -0.010222807463 -0.0038849669469 1.6812095181 -0.010454645219
          -0.0039234743336 1.6808567439 -0.010304063173 -0.0038990321314 1.6806464127 -0.010342454193
          -0.0039154507278 1.6805549831 -0.010443446054 -0.0040730647323 1.6799869976 -0.010200576187
          -0.00380550318 1.6803824467 -0.010393057525 -0.003711242381 1.6806330811 -0.01028752792
          -0.004042506986 1.682630655 -0.010705320634 -0.0026943226567 1.6815863857 -0.011074230392
          -0.003613704875 1.6814485148 -0.010646555988 -0.0036993775302 1.6810409553 -0.010636122428
          -0.0037519812092 1.6807720416 -0.010699409305 -0.0035760711549 1.6805271459 -0.010717865963
          -0.0036734997408 1.6804037117 -0.010625222735 -0.0037720221627 1.6803912019 -0.010631847618
          -0.0046373042359 1.680118021 -0.011046388594 -0.0033016161565 1.680706858 -0.010654146423
          -0.0036901167568 1.6825057602 -0.010880482851 -0.0031650482994 1.6818505518 -0.01109155679
          -0.0033609486192 1.6815550189 -0.011021273218 -0.0034706171059 1.681155604 -0.010991530509
          -0.0034995177853 1.6808165752 -0.01102731213 -0.0034221085465 1.6806278083 -0.010994501705
          -0.0034835249159 1.6805223589 -0.011003023753 -0.0035867487844 1.680502156 -0.010993440196
          -0.0038012873281 1.6803664326 -0.011078703212 -0.0032466648363 1.6805983051 -0.010864541408
          -0.0030906632151 1.6826671927 -0.011294812575 -0.003005135651 1.6819964075 -0.011338344455
          -0.0030700989689 1.6815481751 -0.011313080619 -0.003223823007 1.6811537367 -0.01134361027
          -0.0032468139402 1.6807218319 -0.01138149917 -0.0032293889321 1.6805891421 -0.011338255377
          -0.0033019664795 1.6805072529 -0.011329394864 -0.0034370180849 1.6804914898 -0.011295585958
          -0.0035249590059 1.6805210916 -0.011328801689 -0.0034424678599 1.6807584109 -0.011284786271
          -0.0024384732683 1.6824696033 -0.011585312799 -0.002541773081 1.6819846448 -0.011622431532
          -0.0028465715267 1.6815272562 -0.011581497809 -0.002986203512 1.6812514236 -0.011682535424
          -0.0028003006119 1.6807544901 -0.011787701674 -0.0033105548794 1.6805495934 -0.011798368945
          -0.0031291380502 1.6806479845 -0.011661376272 -0.0032574465849 1.6804807576 -0.011563236325
          -0.0035717849939 1.6805174201 -0.011607602983 -0.0036625375232 1.6805851614 -0.011557158892
          -0.0027623627519 1.6821671877 -0.011393703676 -0.0025877925908 1.6819312671 -0.011753507173
          -0.0023011447004 1.6816497095 -0.011909569351 -0.0025670287822 1.6811264973 -0.012008562068
          -0.0015749603671 1.6806745451 -0.011556412944 -0.00407683101 1.6804751918 -0.011524125258
          -0.0030635136817 1.6805027187 -0.011971679531 -0.00336376834 1.6805955118 -0.011873848087
          -0.0031111104991 1.6804640145 -0.011726612166 -0.0028959514423 1.6802516259 -0.011370365019
          -0.0019873202019 1.6815982706 -0.012342703665 -0.0016173684262 1.682228298 -0.012047179518
          -0.0022818797822 1.681640732 -0.012259502995 -0.0014006879408 1.6809706037 -0.012444163516
          -0.0019118046638 1.6805213463 -0.01247993802 -0.0033301831414 1.680375468 -0.012402715061
          -0.003818984937 1.6803622965 -0.01239741397 -0.0029219685604 1.6805969498 -0.012209578419
          -0.0036025284135 1.6807403826 -0.012012585849 -0.003302676864 1.6797221611 -0.012330932157
          -0.0016177957171 1.6821092898 -0.011279543669 -0.0017070679981 1.6820203015 -0.012137718273
          -0.00079378580893 1.6814805021 -0.012575716107 -0.001229439042 1.6814492958 -0.012126078851
          -0.0022485489528 1.6828974556 -0.011328623035 -0.0025481387497 1.682680991 -0.011350715069
          -0.0036257993623 1.6807939676 -0.012111723265 -0.0040401411112 1.6804203669 -0.01254361784
          -0.0031208593599 1.6805743871 -0.012080135173 -0.0032134625671 1.6802467961 -0.011261547982
          -0.0044815883095 1.677872326 -0.012938289223 -0.00051458984274 1.6834079421 -0.011532154063
          -0.0040795228871 1.6819897091 -0.013161125246 -0.0049426680784 1.6827139957 -0.013164119712
          -0.0042708997374 1.6823272368 -0.012967171278 -7.8462077229e-05 1.6821741743 -0.012991315385
          0.00063230979128 1.6821362078 -0.013097065703 -0.00025752980563 1.6809765219 -0.013070357652
          -0.0038113958477 1.6818600285 -0.011496473252 0.00014207804728 1.675913414 -0.0128533327
          -0.0047959529371 1.6832564549 -0.010260765498 -0.0041876769585 1.6820166435 -0.0097653545383
          -0.004657160204 1.6821520236 -0.01021018122 -0.0045879687047 1.6817734484 -0.010365500487
          -0.0041925658314 1.6810387194 -0.0099580943063 -0.0040759753582 1.6808414898 -0.010001982309
          -0.0036008158376 1.6811835339 -0.010368898545 -0.0035477494778 1.6810915332 -0.010174769268
          -0.0040591792064 1.6804758204 -0.0097792920174 -0.0034544450545 1.6813179612 -0.010234219363
          -0.0042314683977 1.6823381588 -0.010125303534 -0.004392727891 1.6824399854 -0.010350053907
          -0.0039893594638 1.6818059288 -0.010326324405 -0.0039181032813 1.6814182546 -0.010323061557
          -0.0039272866386 1.6811768858 -0.010287073171 -0.0039096107235 1.6809631959 -0.01026904398
          -0.0038747886399 1.6807442072 -0.010323373868 -0.0037863991089 1.680772214 -0.010330185319
          -0.0033621316787 1.6809874687 -0.010333790898 -0.0036597221667 1.6804051577 -0.01011999352
          -0.0031118888542 1.682046589 -0.011038686978 -0.0036964228041 1.6821354757 -0.010655134603
          -0.0036178311998 1.6818651716 -0.010644463967 -0.003745354782 1.6813549398 -0.01067944101
          -0.0037281398646 1.6809938329 -0.010676893819 -0.0036599565883 1.6807737383 -0.010695461204
          -0.0036385099082 1.6807542283 -0.010648265389 -0.0037559008298 1.6807872546 -0.010633174226
          -0.0036626150051 1.6806756465 -0.010646904958 -0.0042490984912 1.680117833 -0.011025756018
          -0.0035787086267 1.6828474558 -0.011043027217 -0.0034324944947 1.6821984966 -0.010978786697
          -0.0034496149286 1.6818006244 -0.011066235152 -0.0035206448242 1.6814488211 -0.011036191548
          -0.0034624698476 1.6810703816 -0.011018283837 -0.0034421576278 1.6808811836 -0.011033972052
          -0.0034948281334 1.6807935084 -0.010959111271 -0.003486089862 1.6807410631 -0.011048594586
          -0.0034929886071 1.6807178027 -0.010952952728 -0.0033694166202 1.6809191632 -0.011030012539
          -0.0030598132179 1.6821870645 -0.011229995014 -0.0029753652229 1.6821537965 -0.01127619066
          -0.0031107395202 1.681867362 -0.011291844417 -0.0031803278886 1.6814503878 -0.011313871813
          -0.0032505402422 1.6810585417 -0.011339544304 -0.003265460952 1.6808393712 -0.011287427685
          -0.003350885614 1.6807966676 -0.011278573203 -0.0034144455207 1.6808169668 -0.01127014729
          -0.0035386766636 1.6806668808 -0.011259834265 -0.0034598027881 1.6802687149 -0.011223620108