<?xml version="1.0"?>
<VTKFile type="UnstructuredGrid" version="0.1" byte_order="LittleEndian" compressor="vtkZLibDataCompressor">
  <UnstructuredGrid>
    <FieldData>
      <DataArray type="Float64" Name="TIME" NumberOfTuples="1" format="ascii" RangeMin="0.26453934267" RangeMax="0.26453934267">
        0.26453934267
      </DataArray>
    </FieldData>
    <Piece NumberOfPoints="1000" NumberOfCells="0">
      <PointData>
        <DataArray type="Float64" Name="Damage" format="ascii" RangeMin="0" RangeMax="0.49719101124">
          0 0 0 0 0 0
          0 0 0 0 0 0.027932960894
          0 0 0 0 0 0
          0.027932960894 0 0 0.055084745763 0.071428571429 0.040345821326
          0.014164305949 0.012987012987 0.040345821326 0.071428571429 0.055084745763 0
          0 0.067669172932 0.11239193084 0.1074168798 0.037688442211 0.034562211982
          0.1074168798 0.11239193084 0.067669172932 0 0 0.074349442379
          0.16147308782 0.16834170854 0.12376237624 0.11286681716 0.16834170854 0.16147308782
          0.074349442379 0 0 0.084459459459 0.2 0.25806451613
          0.33860045147 0.39211618257 0.25806451613 0.2 0.084459459459 0
          0 0.093984962406 0.25360230548 0.36061381074 0.41959798995 0.46774193548
          0.36061381074 0.25360230548 0.093984962406 0 0 0.10593220339
          0.31493506494 0.40057636888 0.4447592068 0.49090909091 0.40057636888 0.31493506494
          0.10593220339 0 0 0.16759776536 0.3686440678 0.43984962406
          0.44609665428 0.49662162162 0.43984962406 0.3686440678 0.16759776536 0
          0 0.1677852349 0.36734693878 0.43891402715 0.44642857143 0.49593495935
          0.43891402715 0.36734693878 0.1677852349 0 0 0
          0 0 0 0 0 0
          0 0 0 0.027906976744 0 0
          0 0 0 0 0.027906976744 0
          0 0.056338028169 0.072776280323 0.040669856459 0.014117647059 0.012931034483
          0.040669856459 0.072776280323 0.056338028169 0 0 0.06875
          0.11483253589 0.10828025478 0.0375782881 0.034416826004 0.10828025478 0.11483253589
          0.06875 0 0 0.074303405573 0.16235294118 0.16910229645
          0.12371134021 0.11257035647 0.16910229645 0.16235294118 0.074303405573 0
          0 0.084269662921 0.20043103448 0.25812619503 0.33771106942 0.39242685026
          0.25812619503 0.20043103448 0.084269662921 0 0 0.09375
          0.25358851675 0.36093418259 0.41962421712 0.46845124283 0.36093418259 0.25358851675
          0.09375 0 0 0.10563380282 0.3153638814 0.4019138756
          0.44470588235 0.49137931034 0.4019138756 0.3153638814 0.10563380282 0
          0 0.16744186047 0.36971830986 0.440625 0.44582043344 0.49719101124
          0.440625 0.36971830986 0.16744186047 0 0 0.16759776536
          0.3686440678 0.43984962406 0.44609665428 0.49662162162 0.43984962406 0.3686440678
          0.16759776536 0 0 0 0 0
          0 0 0 0 0 0
          0 0.024647887324 0 0 0 0
          0 0 0.024647887324 0 0 0.051212938005
          0.06875 0.038817005545 0.012635379061 0.011666666667 0.038817005545 0.06875
          0.051212938005 0 0 0.064593301435 0.10905730129 0.10491803279
          0.036858974359 0.034023668639 0.10491803279 0.10905730129 0.064593301435 0
          0 0.070588235294 0.15523465704 0.16506410256 0.12283464567 0.11271676301
          0.16506410256 0.15523465704 0.070588235294 0 0 0.081896551724
          0.19333333333 0.25443786982 0.33959537572 0.38985313752 0.25443786982 0.19333333333
          0.081896551724 0 0 0.093301435407 0.24768946396 0.35573770492
          0.41987179487 0.46449704142 0.35573770492 0.24768946396 0.093301435407 0
          0 0.10781671159 0.30833333333 0.39556377079 0.4440433213 0.48666666667
          0.39556377079 0.30833333333 0.10781671159 0 0 0.16197183099
          0.35579514825 0.43062200957 0.44470588235 0.49137931034 0.43062200957 0.35579514825
          0.16197183099 0 0 0.16101694915 0.3538961039 0.42939481268
          0.4447592068 0.49090909091 0.42939481268 0.3538961039 0.16101694915 0
          0 0 0 0 0 0
          0 0 0 0 0 0.025
          0 0 0 0 0 0
          0.025 0 0 0.05023923445 0.068391866913 0.039344262295
          0.012820512821 0.011834319527 0.039344262295 0.068391866913 0.05023923445 0
          0 0.063694267516 0.10819672131 0.10465116279 0.036984352774 0.034120734908
          0.10465116279 0.10819672131 0.063694267516 0 0 0.070981210856
          0.15544871795 0.16500711238 0.12290502793 0.11282051282 0.16500711238 0.15544871795
          0.070981210856 0 0 0.082217973231 0.19378698225 0.25459317585
          0.33974358974 0.38981042654 0.25459317585 0.19378698225 0.082217973231 0
          0 0.093418259023 0.24918032787 0.35610465116 0.41963015647 0.46456692913
          0.35610465116 0.24918032787 0.093418259023 0 0 0.10765550239
          0.30868761553 0.39508196721 0.44391025641 0.48668639053 0.39508196721 0.30868761553
          0.10765550239 0 0 0.1625 0.35645933014 0.43099787686
          0.44467640919 0.4913957935 0.43099787686 0.35645933014 0.1625 0
          0 0.16165413534 0.35446685879 0.42966751918 0.44472361809 0.49078341014
          0.42966751918 0.35446685879 0.16165413534 0 0 0
          0 0 0 0 0 0
          0 0 0 0.02786377709 0 0
          0 0 0 0 0.02786377709 0
          0 0.054117647059 0.070397111913 0.040064102564 0.014173228346 0.013005780347
          0.040064102564 0.070397111913 0.054117647059 0 0 0.066805845511
          0.11057692308 0.106685633 0.037709497207 0.034615384615 0.106685633 0.11057692308
          0.066805845511 0 0 0.074226804124 0.16062992126 0.16759776536
          0.12362637363 0.11292346299 0.16759776536 0.16062992126 0.074226804124 0
          0 0.084427767355 0.19942196532 0.25769230769 0.33877038896 0.39145496536
          0.25769230769 0.19942196532 0.084427767355 0 0 0.093945720251
          0.25320512821 0.35988620199 0.41899441341 0.46666666667 0.35988620199 0.25320512821
          0.093945720251 0 0 0.10588235294 0.31407942238 0.39903846154
          0.44409448819 0.48988439306 0.39903846154 0.31407942238 0.10588235294 0
          0 0.16718266254 0.36705882353 0.43841336117 0.44536082474 0.49530956848
          0.43841336117 0.36705882353 0.16718266254 0 0 0.16728624535
          0.36543909348 0.43718592965 0.44554455446 0.49435665914 0.43718592965 0.36543909348
          0.16728624535 0 0 0 0 0
          0 0 0 0 0 0
          0 0.025280898876 0 0 0 0
          0 0 0.025280898876 0 0 0.049568965517
          0.066666666667 0.038461538462 0.013005780347 0.012016021362 0.038461538462 0.066666666667
          0.049568965517 0 0 0.06309751434 0.1050295858 0.10367454068
          0.037179487179 0.034360189573 0.10367454068 0.1050295858 0.06309751434 0
          0 0.071294559099 0.15462427746 0.1641025641 0.12296110414 0.11316397229
          0.1641025641 0.15462427746 0.071294559099 0 0 0.082616179002
          0.19359145527 0.25473933649 0.34064665127 0.38930481283 0.25473933649 0.19359145527
          0.082616179002 0 0 0.093690248566 0.24852071006 0.35564304462
          0.41923076923 0.46327014218 0.35564304462 0.24852071006 0.093690248566 0
          0 0.10775862069 0.30833333333 0.39349112426 0.4436416185 0.48598130841
          0.39349112426 0.30833333333 0.10775862069 0 0 0.16292134831
          0.35560344828 0.43021032505 0.44465290807 0.49053356282 0.43021032505 0.35560344828
          0.16292134831 0 0 0.16216216216 0.35324675325 0.42857142857
          0.44469525959 0.48962655602 0.42857142857 0.35324675325 0.16216216216 0
          0 0 0 0 0 0
          0 0 0 0 0 0.025
          0 0 0 0 0 0
          0.025 0 0 0.05023923445 0.068391866913 0.039344262295
          0.012820512821 0.011834319527 0.039344262295 0.068391866913 0.05023923445 0
          0 0.063694267516 0.10819672131 0.10465116279 0.036984352774 0.034120734908
          0.10465116279 0.10819672131 0.063694267516 0 0 0.070981210856
          0.15544871795 0.16500711238 0.12290502793 0.11282051282 0.16500711238 0.15544871795
          0.070981210856 0 0 0.082217973231 0.19378698225 0.25459317585
          0.33974358974 0.38981042654 0.25459317585 0.19378698225 0.082217973231 0
          0 0.093418259023 0.24918032787 0.35610465116 0.41963015647 0.46456692913
          0.35610465116 0.24918032787 0.093418259023 0 0 0.10765550239
          0.30868761553 0.39508196721 0.44391025641 0.48668639053 0.39508196721 0.30868761553
          0.10765550239 0 0 0.1625 0.35645933014 0.43099787686
          0.44467640919 0.4913957935 0.43099787686 0.35645933014 0.1625 0
          0 0.16165413534 0.35446685879 0.42966751918 0.44472361809 0.49078341014
          0.42966751918 0.35446685879 0.16165413534 0 0 0
          0 0 0 0 0 0
          0 0 0 0.024647887324 0 0
          0 0 0 0 0.024647887324 0
          0 0.051212938005 0.06875 0.038817005545 0.012635379061 0.011666666667
          0.038817005545 0.06875 0.051212938005 0 0 0.064593301435
          0.10905730129 0.10491803279 0.036858974359 0.034023668639 0.10491803279 0.10905730129
          0.064593301435 0 0 0.070588235294 0.15523465704 0.16506410256
          0.12283464567 0.11271676301 0.16506410256 0.15523465704 0.070588235294 0
          0 0.081896551724 0.19333333333 0.25443786982 0.33959537572 0.38985313752
          0.25443786982 0.19333333333 0.081896551724 0 0 0.093301435407
          0.24768946396 0.35573770492 0.41987179487 0.46449704142 0.35573770492 0.24768946396
          0.093301435407 0 0 0.10781671159 0.30833333333 0.39556377079
          0.4440433213 0.48666666667 0.39556377079 0.30833333333 0.10781671159 0
          0 0.16197183099 0.35579514825 0.43062200957 0.44470588235 0.49137931034
          0.43062200957 0.35579514825 0.16197183099 0 0 0.16101694915
          0.3538961039 0.42939481268 0.4447592068 0.49090909091 0.42939481268 0.3538961039
          0.16101694915 0 0 0 0 0
          0 0 0 0 0 0
          0 0.027906976744 0 0 0 0
          0 0 0.027906976744 0 0 0.056338028169
          0.072776280323 0.040669856459 0.014117647059 0.012931034483 0.040669856459 0.072776280323
          0.056338028169 0 0 0.06875 0.11483253589 0.10828025478
          0.0375782881 0.034416826004 0.10828025478 0.11483253589 0.06875 0
          0 0.074303405573 0.16235294118 0.16910229645 0.12371134021 0.11257035647
          0.16910229645 0.16235294118 0.074303405573 0 0 0.084269662921
          0.20043103448 0.25812619503 0.33771106942 0.39242685026 0.25812619503 0.20043103448
          0.084269662921 0 0 0.09375 0.25358851675 0.36093418259
          0.41962421712 0.46845124283 0.36093418259 0.25358851675 0.09375 0
          0 0.10563380282 0.3153638814 0.4019138756 0.44470588235 0.49137931034
          0.4019138756 0.3153638814 0.10563380282 0 0 0.16744186047
          0.36971830986 0.440625 0.44582043344 0.49719101124 0.440625 0.36971830986
          0.16744186047 0 0 0.16759776536 0.3686440678 0.43984962406
          0.44609665428 0.49662162162 0.43984962406 0.3686440678 0.16759776536 0
          0 0 0 0 0 0
          0 0 0 0 0 0.027932960894
          0 0 0 0 0 0
          0.027932960894 0 0 0.055084745763 0.071428571429 0.040345821326
          0.014164305949 0.012987012987 0.040345821326 0.071428571429 0.055084745763 0
          0 0.067669172932 0.11239193084 0.1074168798 0.037688442211 0.034562211982
          0.1074168798 0.11239193084 0.067669172932 0 0 0.074349442379
          0.16147308782 0.16834170854 0.12376237624 0.11286681716 0.16834170854 0.16147308782
          0.074349442379 0 0 0.084459459459 0.2 0.25806451613
          0.33860045147 0.39211618257 0.25806451613 0.2 0.084459459459 0
          0 0.093984962406 0.25360230548 0.36061381074 0.41959798995 0.46774193548
          0.36061381074 0.25360230548 0.093984962406 0 0 0.10593220339
          0.31493506494 0.40057636888 0.4447592068 0.49090909091 0.40057636888 0.31493506494
          0.10593220339 0 0 0.16759776536 0.3686440678 0.43984962406
          0.44609665428 0.49662162162 0.43984962406 0.3686440678 0.16759776536 0
          0 0.1677852349 0.36734693878 0.43891402715 0.44642857143 0.49593495935
          0.43891402715 0.36734693878 0.1677852349 0
        </DataArray>
        <DataArray type="Float64" Name="Displacement" NumberOfComponents="3" format="ascii" RangeMin="1.4453987108" RangeMax="1.4651381909">
          -0.0092234503347 1.4606396316 -0.017830619495 -0.0067293106753 1.4586869601 -0.018842229276
          -0.0064272392536 1.4563647688 -0.017467995622 -0.0068272286715 1.4555572381 -0.016966457463
          -0.0066700471357 1.4554183939 -0.017149122676 -0.0066325159201 1.4546260371 -0.016999022143
          -0.0065314222666 1.4545976104 -0.017014903012 -0.0069535695786 1.454605046 -0.017455745395
          -0.0065840974565 1.456235958 -0.018798557463 -0.0038608996206 1.4575862559 -0.017809006294
          -0.0056353514246 1.4568210383 -0.017516305656 -0.0042921009366 1.4569589092 -0.019058694816
          -0.0062767218153 1.4539920188 -0.015363771878 -0.0057554235546 1.4555905726 -0.01722625179
          -0.0061447403488 1.4552625055 -0.016996813263 -0.0062445293701 1.4551359553 -0.01681843403
          -0.0070213458583 1.4543251715 -0.017107172995 -0.0064242979559 1.4523525896 -0.015413288038
          -0.0082937366624 1.45461197 -0.019033020657 -0.0068815981186 1.4537912589 -0.01747643898
          -0.0055552068631 1.4562050196 -0.018057034839 -0.0065723905754 1.4558232849 -0.016718360445
          -0.0061433577934 1.4554677963 -0.017084879187 -0.0059231159203 1.4553508006 -0.017285523394
          -0.0059326193609 1.4555013765 -0.017488753076 -0.0061520946541 1.4545809424 -0.016970126891
          -0.0061181977885 1.4541695425 -0.017204523603 -0.0058446212982 1.4537407107 -0.017012721164
          -0.0055371528779 1.4534107456 -0.016731707124 -0.0065398925021 1.4529713863 -0.018051048285
          -0.0053159192696 1.4573321272 -0.018329677645 -0.0053355969549 1.455565064 -0.017537276235
          -0.0051243056957 1.4556701493 -0.017956587418 -0.0052269917436 1.4555674209 -0.01775842754
          -0.005478618064 1.455066316 -0.017523588729 -0.0057683676629 1.4548605207 -0.017460810393
          -0.0062683500413 1.4546712931 -0.017977415496 -0.0062010501111 1.4538478281 -0.017892039828
          -0.0059694140636 1.453136543 -0.017541397773 -0.0059082076048 1.4542516216 -0.018243152318
          -0.0050090520482 1.4554294281 -0.018205393999 -0.0054202033315 1.4557733892 -0.018052780229
          -0.0044321519131 1.4553841337 -0.018782531773 -0.0054567815463 1.4552476507 -0.01779390244
          -0.0054409897057 1.455124007 -0.018165215161 -0.0047917952196 1.4541010951 -0.018285328729
          -0.0051581669912 1.454231761 -0.01778018285 -0.0062032726082 1.453681914 -0.018804839885
          -0.0052236524612 1.4533114902 -0.018039852004 -0.0055707023073 1.4522775727 -0.018109041059
          -0.0048672290795 1.4560701308 -0.01872256649 -0.0054648615271 1.4561810442 -0.018803821919
          -0.0045369758057 1.4551367783 -0.01965403441 -0.0049172659011 1.455436835 -0.018328540232
          -0.0072019762505 1.4546174852 -0.020567639852 -0.0029045434147 1.4543067129 -0.02062102098
          -0.0049513486523 1.4544589135 -0.018353216785 -0.0053838348991 1.4533976844 -0.019625688179
          -0.0044624685208 1.4536983453 -0.018835242411 -0.0050797397175 1.4530624421 -0.018659017227
          -0.0039536537757 1.4559369317 -0.020218605448 -0.0033348980072 1.4563510565 -0.020189179468
          -0.0043336898808 1.4554261682 -0.019573143486 -0.0028282054786 1.454872381 -0.019254096178
          -0.0043607963605 1.4543938471 -0.0192438468 -0.0048505880052 1.454144529 -0.019356553131
          -0.006452014829 1.4539468906 -0.01925765447 -0.0049372299056 1.4537382168 -0.019557468608
          -0.0059909720512 1.453972789 -0.020216335728 -0.0053306651418 1.4528456002 -0.020179029082
          -0.0042243182092 1.4548275586 -0.021509409812 -0.004265547308 1.4565065455 -0.019760108154
          -0.0031540053373 1.4556868891 -0.019889115098 -0.0058441495818 1.4557626345 -0.019566706876
          -0.0073499997846 1.4549121833 -0.021591991201 -0.0012826791981 1.4545789589 -0.021521929441
          -0.0027982543766 1.4547652827 -0.019506699422 -0.0054673894842 1.4540056602 -0.019856007074
          -0.0041775472486 1.4540440699 -0.019691891155 -0.0042374931367 1.4516656354 -0.021376661186
          -0.0015678290607 1.4521840404 -0.024777936438 -0.00071471391281 1.4571248662 -0.021157180893
          -0.0053630720997 1.4558621594 -0.019457750279 -0.0064612687961 1.4533889683 -0.020971828363
          -0.0067981539981 1.4561535994 -0.021493356741 -0.00089824634052 1.455879257 -0.021464615219
          -0.0013661458016 1.4524210331 -0.020925249922 -0.0025614156356 1.4541842949 -0.019407447735
          -0.0072036679861 1.4546672786 -0.021210844181 -0.0064907709379 1.4491111103 -0.024812148834
          -0.008228998026 1.4482249314 -0.021841215695 -0.00571113882 1.4599780458 -0.013165646323
          -0.0058189075797 1.4527261474 -0.020348527937 -0.0056998651244 1.4506953331 -0.024199208328
          -0.0016772519147 1.449625851 -0.023030751436 -0.0056901764592 1.4494711861 -0.022814680639
          -0.00143718194 1.4495801393 -0.024362995513 -0.0014237755586 1.4510372662 -0.020304700835
          -0.0012479395626 1.4576232337 -0.012983921243 0.00094064849548 1.4452348769 -0.021741644906
          -0.0063971997678 1.4563192089 -0.016609011623 -0.0070555026324 1.4569297685 -0.016902692878
          -0.0061061948716 1.4544099032 -0.014751306309 -0.0063671329076 1.4554933389 -0.016812439617
          -0.0065928365374 1.4554279641 -0.01675488317 -0.0066597578254 1.4551508094 -0.01678795755
          -0.0070645809351 1.4543010055 -0.016579963309 -0.0072519922048 1.4527306165 -0.014773976166
          -0.0063459631752 1.4544337431 -0.016818991929 -0.006946605992 1.4532353754 -0.016679359991
          -0.005071720782 1.4560336622 -0.018069074711 -0.005967874629 1.4567365805 -0.016794524747
          -0.0065177740472 1.4559569431 -0.016529168142 -0.0064016965524 1.4559982233 -0.016915417235
          -0.0062849819564 1.4558237148 -0.01718806053 -0.0063599763464 1.4550728147 -0.016919286703
          -0.0062771589632 1.4551390471 -0.017025979664 -0.0061783113333 1.454237373 -0.01646682523
          -0.0067156817618 1.4543417668 -0.016780773972 -0.0076852231597 1.4528922418 -0.018114492823
          -0.0063358518169 1.4561085985 -0.017540862232 -0.0063988879362 1.4566169461 -0.017528998609
          -0.0057165839372 1.456173335 -0.017912329206 -0.0059213020133 1.4556939498 -0.017151904801
          -0.0059817485272 1.4555188215 -0.017018218462 -0.0059641247227 1.4552195996 -0.017038544837
          -0.006072253043 1.4547581781 -0.017198548286 -0.0062476001328 1.4543957751 -0.017779685322
          -0.0056186765954 1.4542178044 -0.01746055299 -0.0057141511322 1.4530141287 -0.017581714182
          -0.0054053399884 1.4561071262 -0.017892215912 -0.0056128550079 1.4565486274 -0.018290148884
          -0.0057775974791 1.4561828778 -0.017759434602 -0.0059760526668 1.4554675341 -0.016946650746
          -0.005622554984 1.4557927278 -0.017900022832 -0.0056748123542 1.455396381 -0.017756777315
          -0.0053491227534 1.4544305579 -0.01697616723 -0.0055862405377 1.4544992969 -0.017807939841
          -0.0056900922143 1.454161671 -0.018235968773 -0.0058801796965 1.4530413347 -0.017919545612
          -0.0057524040045 1.4577739975 -0.019234798921 -0.0053161384901 1.4562623222 -0.018710367251
          -0.0052762496333 1.4561033191 -0.018431911151 -0.0051901307724 1.4559707014 -0.018295927015
          -0.005338812307 1.4556520138 -0.01826774209 -0.0052984066206 1.4552744868 -0.018223292406
          -0.0054206352743 1.454952632 -0.018314475723 -0.0053860264932 1.454408508 -0.018409808169
          -0.0053142272456 1.4538707294 -0.01863463113 -0.00488789558 1.4546597953 -0.019213258485
          -0.0045107289124 1.4565880676 -0.02022790588 -0.0051721677568 1.4562392572 -0.0191472924
          -0.0044944259523 1.4561828645 -0.019423526214 -0.0050680258473 1.4558948288 -0.019002875248
          -0.0051971465754 1.4557441418 -0.018958838122 -0.0047394553148 1.4553317538 -0.018939927748
          -0.0049102377922 1.4549029911 -0.01887704201 -0.0054889425701 1.4545034379 -0.019404419353
          -0.0047695171251 1.4538315596 -0.019121633859 -0.0054260220563 1.4534757149 -0.020247958494
          -0.0044874978405 1.4567270367 -0.02032209093 -0.0053601521934 1.4562742901 -0.019237940297
          -0.0051144087274 1.456076806 -0.01950320574 -0.0047212824197 1.4559035263 -0.019440934945
          -0.0047801239906 1.4560722561 -0.018889405675 -0.0044849374176 1.4557643697 -0.018861618171
          -0.0045375726669 1.4548620499 -0.019401950873 -0.0041572546938 1.4543892861 -0.01946606516
          -0.0039156073611 1.4538621795 -0.019214209052 -0.0047897521803 1.4536798287 -0.020343895526
          -0.005506885961 1.456943829 -0.019229370811 -0.0048797917539 1.4570540256 -0.01934003137
          -0.0050739706294 1.455905498 -0.019898672575 -0.0045838123009 1.4559089708 -0.020147104284
          -0.0050229498199 1.4561241292 -0.019682326763 -0.0035225073824 1.4558065717 -0.019629627939
          -0.003889725904 1.4549277749 -0.02011694009 -0.0035573071905 1.4542186547 -0.019834750466
          -0.0037260483982 1.4546912913 -0.019279886825 -0.0030851971328 1.4537984319 -0.01915669136
          -0.0066731156428 1.4563662905 -0.019791650858 -0.0046041973535 1.4563497715 -0.021013622897
          -0.0044295758762 1.4562523534 -0.020456402689 -0.0046669583843 1.4560536478 -0.019884617348
          -0.0033924409029 1.4554460456 -0.019487859084 -0.0044282031515 1.4551266852 -0.019464594738
          -0.0032027987685 1.4550156332 -0.019846349675 -0.0034240118007 1.4545006244 -0.020414218298
          -0.0032637252884 1.4538916285 -0.020993973657 -0.0011575523689 1.45318908 -0.019724738593
          -0.0068704329299 1.4518435837 -0.025700053139 -0.0055492336748 1.4555859879 -0.020976527855
          -0.0056760454173 1.4563707033 -0.020932011587 -0.0054115508508 1.4562676757 -0.021471399698
          -0.0053930234721 1.4549351373 -0.021257343468 -0.0017741081375 1.4545994643 -0.02130201296
          -0.0016512038768 1.4553686123 -0.021361884594 -0.001497435756 1.4546765494 -0.02085979299
          -0.0015570410447 1.453210857 -0.020747224881 -0.00029324554835 1.4486406486 -0.025662224388
          -0.0068472411374 1.457198252 -0.016445381508 -0.0066357629273 1.4563940892 -0.015726692446
          -0.0068267929524 1.4567920664 -0.016427084628 -0.0066636678078 1.4558160233 -0.015920952079
          -0.0066899075786 1.4563809635 -0.016860570965 -0.0065792741052 1.4560851413 -0.017031247876
          -0.006779938527 1.4547328902 -0.015853012832 -0.0065685748355 1.4550388216 -0.016350199765
          -0.0067283818096 1.4539581766 -0.015688649868 -0.006636147504 1.4539917128 -0.016340073221
          -0.0061335477391 1.4569359376 -0.017095855969 -0.0064483414493 1.4569282421 -0.016788507797
          -0.0061013436723 1.456329855 -0.016830901408 -0.0062836196139 1.4563501049 -0.016934424296
          -0.0063253380685 1.4559264457 -0.016847930391 -0.0063774848598 1.4555573951 -0.016832241502
          -0.0063986009837 1.4553600983 -0.016912547342 -0.0066275426965 1.4546131054 -0.016812935765
          -0.006208777225 1.4545483635 -0.01673751338 -0.0065782344568 1.4538565276 -0.017071914434
          -0.0060961098721 1.456981729 -0.017372349755 -0.0051215685264 1.4566377177 -0.017825440188
          -0.0058613857479 1.4564967044 -0.017433117431 -0.0059555695808 1.4563669851 -0.017346978415
          -0.0059756076693 1.456131965 -0.017272659013 -0.0059362484084 1.4556919927 -0.017333953168
          -0.006065593517 1.4553504107 -0.017318999441 -0.0061177966768 1.4547744812 -0.017379110582
          -0.0068733328007 1.4542703939 -0.017775219578 -0.0058893573703 1.4538995992 -0.017343784925
          -0.0057698240219 1.4570456053 -0.0181587906 -0.0055469501812 1.4568191888 -0.018100158471
          -0.0056256313262 1.4566181648 -0.017962361877 -0.0056612254243 1.4564280287 -0.017782085969
          -0.0056668979801 1.4562247138 -0.017782480557 -0.0056566376236 1.455938102 -0.01775767403
          -0.005639932396 1.455440222 -0.017750064919 -0.0056882572659 1.4548988341 -0.017950820557
          -0.0057920013675 1.4544328766 -0.018079009072 -0.0055715353983 1.4539359558 -0.018126746071
          -0.0055878249144 1.4570729597 -0.018616513859 -0.0054919619307 1.4568302925 -0.018569791661
          -0.0054963781188 1.456620022 -0.018441520895 -0.0052436220321 1.4565252698 -0.018343557862
          -0.0052822078548 1.4562241566 -0.01824347891 -0.0053063541311 1.4559474828 -0.018223710968
          -0.0053778147915 1.4554500979 -0.018308102999 -0.0051540433973 1.4548965738 -0.018415841424
          -0.0051658662825 1.4544280018 -0.018551345888 -0.0050158558277 1.453979127 -0.01854803779
          -0.0054954686016 1.4567363079 -0.019108491677 -0.005480993335 1.4566084339 -0.019102109864
          -0.0050374796929 1.4566339098 -0.019107485724 -0.0050810242227 1.4564699826 -0.018887777674
          -0.0051189028094 1.4562864219 -0.018654997437 -0.004884224348 1.4559586432 -0.018658637226
          -0.0048712412697 1.4554862398 -0.018852769933 -0.004896250929 1.4549221418 -0.019068645952
          -0.0044564467671 1.4541943404 -0.019074556687 -0.004435944942 1.4536355897 -0.019036148024
          -0.0052268312204 1.4566646634 -0.019632990187 -0.0046612578035 1.4565755817 -0.020023611378
          -0.0048606906335 1.4565692056 -0.019548091285 -0.0053240951168 1.4564736745 -0.019388640307
          -0.0046022048119 1.4563305636 -0.018976556979 -0.0046211263696 1.4559855959 -0.018982252574
          -0.0039748932849 1.4554403331 -0.019380608951 -0.0044014195454 1.4548625934 -0.01951891441
          -0.0046378723952 1.4541588094 -0.020022505198 -0.004047320159 1.4535537 -0.019608003844
          -0.0051598112605 1.4572346407 -0.019716433973 -0.0052314312395 1.4561912475 -0.020530777082
          -0.0053640741714 1.4566620845 -0.01981158477 -0.0054569704886 1.4564013487 -0.020159337418
          -0.0049402848526 1.4563628807 -0.019808916615 -0.0036138698994 1.4560075959 -0.019809900699
          -0.0030718535102 1.4553849233 -0.020106043606 -0.0031869681779 1.4549339048 -0.01976648539
          -0.0033791481575 1.4537979859 -0.020492970667 -0.0034034294732 1.4541435296 -0.019656915786
          -0.0043219204887 1.458483456 -0.020080176198 -0.0058730506411 1.4562599392 -0.020236157375
          -0.0047145260708 1.4572106764 -0.019930937796 -0.0037149898365 1.4561112208 -0.020027984555
          -0.0059595562027 1.4582510849 -0.019564972451 -0.001878300828 1.4578834928 -0.019584767995
          -0.0041123023679 1.455132753 -0.0200082128 -0.0031879200763 1.4555206613 -0.019894847554
          -0.00199816073 1.4538265778 -0.020206943107 -0.0035744366888 1.4554043364 -0.020053994322
          -0.0048559069999 1.4574597615 -0.021023923875 -0.0032485581059 1.4581861437 -0.020126128796
          -0.0073797354443 1.4582292576 -0.019088466947 -0.0063456922779 1.457495472 -0.019789782401
          -0.0037191041702 1.4567629913 -0.021125865654 -0.0035268593679 1.4564190573 -0.021064197146
          -0.00085778504664 1.4564564731 -0.019794119103 0.00024421740713 1.4564371238 -0.019073791235
          -0.0038435444419 1.4557420766 -0.020091763811 -0.0024129103416 1.4545123923 -0.021012754538
          -0.0071636353897 1.4583523939 -0.016814800095 -0.0070702070752 1.4577829422 -0.017082027796
          -0.006952509124 1.4575717871 -0.016848387002 -0.0064332197751 1.4563119287 -0.016244084634
          -0.0067014921776 1.4565649006 -0.016480503505 -0.0067284507363 1.456170697 -0.016543215672
          -0.0069477473164 1.4553335702 -0.016197872229 -0.006437845279 1.4558749334 -0.016870744986
          -0.006278099023 1.455495558 -0.016997314265 -0.0061904262215 1.4553179312 -0.016758568468
          -0.0066717849033 1.4587032298 -0.016765489947 -0.0061602462151 1.457326205 -0.017067843812
          -0.0063115567028 1.457067034 -0.016891991818 -0.0061937091626 1.4566524659 -0.016809378046
          -0.0063381865474 1.4566092464 -0.016916287328 -0.0063754410057 1.4562729134 -0.016920183095
          -0.0065316523088 1.4556101459 -0.016781322875 -0.0064382449953 1.455365137 -0.016846286052
          -0.0065588335846 1.4549414395 -0.017037079557 -0.0059117043011 1.4556262466 -0.016720383818
          -0.005611733244 1.457055517 -0.017540352568 -0.0058654098888 1.4573115394 -0.017510617025
          -0.0059352752644 1.4570740953 -0.017484907412 -0.0059139611443 1.4569548279 -0.017454659131
          -0.0059979855229 1.4567405279 -0.017359454667 -0.0060034677971 1.4563524067 -0.017396194867
          -0.0060806018865 1.4559023293 -0.017439007045 -0.0060697845507 1.4553458413 -0.017473755215
          -0.0062038321488 1.4548869103 -0.017469485747 -0.0064271689095 1.4539733402 -0.017507928179
          -0.0053715678243 1.4574480655 -0.018579830545 -0.0056253582081 1.4572890918 -0.018032962697
          -0.0056609690481 1.457107369 -0.017966204525 -0.005667648326 1.4569677857 -0.017872475672
          -0.0056566366277 1.4568014391 -0.01783708631 -0.0056975426214 1.4565183825 -0.017823165639
          -0.0056544212614 1.4559434416 -0.017905757635 -0.0056838513022 1.4553694454 -0.017948946345
          -0.0056992439208 1.4548808769 -0.018000715256 -0.0059945730816 1.4543504449 -0.018552442569
          -0.0055943930423 1.4571605535 -0.018424119985 -0.0053619781607 1.4572929903 -0.018551068009
          -0.0054255492844 1.4571603299 -0.018518332532 -0.0053979784767 1.4569833559 -0.018490623012
          -0.0053462484624 1.4567916219 -0.018329283523 -0.0053274521384 1.4564739491 -0.018262274542
          -0.0052594544082 1.4559486705 -0.018464655348 -0.0052069755446 1.4554345009 -0.018483694548
          -0.0052827157936 1.454883019 -0.018523512273 -0.0050813582639 1.45408599 -0.018391842863