<?xml version="1.0"?>
<VTKFile type="UnstructuredGrid" version="0.1" byte_order="LittleEndian" compressor="vtkZLibDataCompressor">
  <UnstructuredGrid>
    <FieldData>
      <DataArray type="Float64" Name="TIME" NumberOfTuples="1" format="ascii" RangeMin="0.3029362463" RangeMax="0.3029362463">
        0.3029362463
      </DataArray>
    </FieldData>
    <Piece NumberOfPoints="1000" NumberOfCells="0">
      <PointData>
        <DataArray type="Float64" Name="Damage" format="ascii" RangeMin="0" RangeMax="0.49719101124">
          0 0 0 0 0 0
          0 0 0 0 0 0.027932960894
          0 0 0 0 0 0
          0.027932960894 0 0 0.055084745763 0.071428571429 0.040345821326
          0.014164305949 0.012987012987 0.040345821326 0.071428571429 0.055084745763 0
          0 0.067669172932 0.11239193084 0.1074168798 0.037688442211 0.034562211982
          0.1074168798 0.11239193084 0.067669172932 0 0 0.074349442379
          0.16147308782 0.16834170854 0.12376237624 0.11286681716 0.16834170854 0.16147308782
          0.074349442379 0 0 0.084459459459 0.2 0.25806451613
          0.33860045147 0.39211618257 0.25806451613 0.2 0.084459459459 0
          0 0.093984962406 0.25360230548 0.36061381074 0.41959798995 0.46774193548
          0.36061381074 0.25360230548 0.093984962406 0 0 0.10593220339
          0.31493506494 0.40057636888 0.4447592068 0.49090909091 0.40057636888 0.31493506494
          0.10593220339 0 0 0.16759776536 0.3686440678 0.43984962406
          0.44609665428 0.49662162162 0.43984962406 0.3686440678 0.16759776536 0
          0 0.1677852349 0.36734693878 0.43891402715 0.44642857143 0.49593495935
          0.43891402715 0.36734693878 0.1677852349 0 0 0
          0 0 0 0 0 0
          0 0 0 0.027906976744 0 0
          0 0 0 0 0.027906976744 0
          0 0.056338028169 0.072776280323 0.040669856459 0.014117647059 0.012931034483
          0.040669856459 0.072776280323 0.056338028169 0 0 0.06875
          0.11483253589 0.10828025478 0.0375782881 0.034416826004 0.10828025478 0.11483253589
          0.06875 0 0 0.074303405573 0.16235294118 0.16910229645
          0.12371134021 0.11257035647 0.16910229645 0.16235294118 0.074303405573 0
          0 0.084269662921 0.20043103448 0.25812619503 0.33771106942 0.39242685026
          0.25812619503 0.20043103448 0.084269662921 0 0 0.09375
          0.25358851675 0.36093418259 0.41962421712 0.46845124283 0.36093418259 0.25358851675
          0.09375 0 0 0.10563380282 0.3153638814 0.4019138756
          0.44470588235 0.49137931034 0.4019138756 0.3153638814 0.10563380282 0
          0 0.16744186047 0.36971830986 0.440625 0.44582043344 0.49719101124
          0.440625 0.36971830986 0.16744186047 0 0 0.16759776536
          0.3686440678 0.43984962406 0.44609665428 0.49662162162 0.43984962406 0.3686440678
          0.16759776536 0 0 0 0 0
          0 0 0 0 0 0
          0 0.024647887324 0 0 0 0
          0 0 0.024647887324 0 0 0.051212938005
          0.06875 0.038817005545 0.012635379061 0.011666666667 0.038817005545 0.06875
          0.051212938005 0 0 0.064593301435 0.10905730129 0.10491803279
          0.036858974359 0.034023668639 0.10491803279 0.10905730129 0.064593301435 0
          0 0.070588235294 0.15523465704 0.16506410256 0.12283464567 0.11271676301
          0.16506410256 0.15523465704 0.070588235294 0 0 0.081896551724
          0.19333333333 0.25443786982 0.33959537572 0.38985313752 0.25443786982 0.19333333333
          0.081896551724 0 0 0.093301435407 0.24768946396 0.35573770492
          0.41987179487 0.46449704142 0.35573770492 0.24768946396 0.093301435407 0
          0 0.10781671159 0.30833333333 0.39556377079 0.4440433213 0.48666666667
          0.39556377079 0.30833333333 0.10781671159 0 0 0.16197183099
          0.35579514825 0.43062200957 0.44470588235 0.49137931034 0.43062200957 0.35579514825
          0.16197183099 0 0 0.16101694915 0.3538961039 0.42939481268
          0.4447592068 0.49090909091 0.42939481268 0.3538961039 0.16101694915 0
          0 0 0 0 0 0
          0 0 0 0 0 0.025
          0 0 0 0 0 0
          0.025 0 0 0.05023923445 0.068391866913 0.039344262295
          0.012820512821 0.011834319527 0.039344262295 0.068391866913 0.05023923445 0
          0 0.063694267516 0.10819672131 0.10465116279 0.036984352774 0.034120734908
          0.10465116279 0.10819672131 0.063694267516 0 0 0.070981210856
          0.15544871795 0.16500711238 0.12290502793 0.11282051282 0.16500711238 0.15544871795
          0.070981210856 0 0 0.082217973231 0.19378698225 0.25459317585
          0.33974358974 0.38981042654 0.25459317585 0.19378698225 0.082217973231 0
          0 0.093418259023 0.24918032787 0.35610465116 0.41963015647 0.46456692913
          0.35610465116 0.24918032787 0.093418259023 0 0 0.10765550239
          0.30868761553 0.39508196721 0.44391025641 0.48668639053 0.39508196721 0.30868761553
          0.10765550239 0 0 0.1625 0.35645933014 0.43099787686
          0.44467640919 0.4913957935 0.43099787686 0.35645933014 0.1625 0
          0 0.16165413534 0.35446685879 0.42966751918 0.44472361809 0.49078341014
          0.42966751918 0.35446685879 0.16165413534 0 0 0
          0 0 0 0 0 0
          0 0 0 0.02786377709 0 0
          0 0 0 0 0.02786377709 0
          0 0.054117647059 0.070397111913 0.040064102564 0.014173228346 0.013005780347
          0.040064102564 0.070397111913 0.054117647059 0 0 0.066805845511
          0.11057692308 0.106685633 0.037709497207 0.034615384615 0.106685633 0.11057692308
          0.066805845511 0 0 0.074226804124 0.16062992126 0.16759776536
          0.12362637363 0.11292346299 0.16759776536 0.16062992126 0.074226804124 0
          0 0.084427767355 0.19942196532 0.25769230769 0.33877038896 0.39145496536
          0.25769230769 0.19942196532 0.084427767355 0 0 0.093945720251
          0.25320512821 0.35988620199 0.41899441341 0.46666666667 0.35988620199 0.25320512821
          0.093945720251 0 0 0.10588235294 0.31407942238 0.39903846154
          0.44409448819 0.48988439306 0.39903846154 0.31407942238 0.10588235294 0
          0 0.16718266254 0.36705882353 0.43841336117 0.44536082474 0.49530956848
          0.43841336117 0.36705882353 0.16718266254 0 0 0.16728624535
          0.36543909348 0.43718592965 0.44554455446 0.49435665914 0.43718592965 0.36543909348
          0.16728624535 0 0 0 0 0
          0 0 0 0 0 0
          0 0.025280898876 0 0 0 0
          0 0 0.025280898876 0 0 0.049568965517
          0.066666666667 0.038461538462 0.013005780347 0.012016021362 0.038461538462 0.066666666667
          0.049568965517 0 0 0.06309751434 0.1050295858 0.10367454068
          0.037179487179 0.034360189573 0.10367454068 0.1050295858 0.06309751434 0
          0 0.071294559099 0.15462427746 0.1641025641 0.12296110414 0.11316397229
          0.1641025641 0.15462427746 0.071294559099 0 0 0.082616179002
          0.19359145527 0.25473933649 0.34064665127 0.38930481283 0.25473933649 0.19359145527
          0.082616179002 0 0 0.093690248566 0.24852071006 0.35564304462
          0.41923076923 0.46327014218 0.35564304462 0.24852071006 0.093690248566 0
          0 0.10775862069 0.30833333333 0.39349112426 0.4436416185 0.48598130841
          0.39349112426 0.30833333333 0.10775862069 0 0 0.16292134831
          0.35560344828 0.43021032505 0.44465290807 0.49053356282 0.43021032505 0.35560344828
          0.16292134831 0 0 0.16216216216 0.35324675325 0.42857142857
          0.44469525959 0.48962655602 0.42857142857 0.35324675325 0.16216216216 0
          0 0 0 0 0 0
          0 0 0 0 0 0.025
          0 0 0 0 0 0
          0.025 0 0 0.05023923445 0.068391866913 0.039344262295
          0.012820512821 0.011834319527 0.039344262295 0.068391866913 0.05023923445 0
          0 0.063694267516 0.10819672131 0.10465116279 0.036984352774 0.034120734908
          0.10465116279 0.10819672131 0.063694267516 0 0 0.070981210856
          0.15544871795 0.16500711238 0.12290502793 0.11282051282 0.16500711238 0.15544871795
          0.070981210856 0 0 0.082217973231 0.19378698225 0.25459317585
          0.33974358974 0.38981042654 0.25459317585 0.19378698225 0.082217973231 0
          0 0.093418259023 0.24918032787 0.35610465116 0.41963015647 0.46456692913
          0.35610465116 0.24918032787 0.093418259023 0 0 0.10765550239
          0.30868761553 0.39508196721 0.44391025641 0.48668639053 0.39508196721 0.30868761553
          0.10765550239 0 0 0.1625 0.35645933014 0.43099787686
          0.44467640919 0.4913957935 0.43099787686 0.35645933014 0.1625 0
          0 0.16165413534 0.35446685879 0.42966751918 0.44472361809 0.49078341014
          0.42966751918 0.35446685879 0.16165413534 0 0 0
          0 0 0 0 0 0
          0 0 0 0.024647887324 0 0
          0 0 0 0 0.024647887324 0
          0 0.051212938005 0.06875 0.038817005545 0.012635379061 0.011666666667
          0.038817005545 0.06875 0.051212938005 0 0 0.064593301435
          0.10905730129 0.10491803279 0.036858974359 0.034023668639 0.10491803279 0.10905730129
          0.064593301435 0 0 0.070588235294 0.15523465704 0.16506410256
          0.12283464567 0.11271676301 0.16506410256 0.15523465704 0.070588235294 0
          0 0.081896551724 0.19333333333 0.25443786982 0.33959537572 0.38985313752
          0.25443786982 0.19333333333 0.081896551724 0 0 0.093301435407
          0.24768946396 0.35573770492 0.41987179487 0.46449704142 0.35573770492 0.24768946396
          0.093301435407 0 0 0.10781671159 0.30833333333 0.39556377079
          0.4440433213 0.48666666667 0.39556377079 0.30833333333 0.10781671159 0
          0 0.16197183099 0.35579514825 0.43062200957 0.44470588235 0.49137931034
          0.43062200957 0.35579514825 0.16197183099 0 0 0.16101694915
          0.3538961039 0.42939481268 0.4447592068 0.49090909091 0.42939481268 0.3538961039
          0.16101694915 0 0 0 0 0
          0 0 0 0 0 0
          0 0.027906976744 0 0 0 0
          0 0 0.027906976744 0 0 0.056338028169
          0.072776280323 0.040669856459 0.014117647059 0.012931034483 0.040669856459 0.072776280323
          0.056338028169 0 0 0.06875 0.11483253589 0.10828025478
          0.0375782881 0.034416826004 0.10828025478 0.11483253589 0.06875 0
          0 0.074303405573 0.16235294118 0.16910229645 0.12371134021 0.11257035647
          0.16910229645 0.16235294118 0.074303405573 0 0 0.084269662921
          0.20043103448 0.25812619503 0.33771106942 0.39242685026 0.25812619503 0.20043103448
          0.084269662921 0 0 0.09375 0.25358851675 0.36093418259
          0.41962421712 0.46845124283 0.36093418259 0.25358851675 0.09375 0
          0 0.10563380282 0.3153638814 0.4019138756 0.44470588235 0.49137931034
          0.4019138756 0.3153638814 0.10563380282 0 0 0.16744186047
          0.36971830986 0.440625 0.44582043344 0.49719101124 0.440625 0.36971830986
          0.16744186047 0 0 0.16759776536 0.3686440678 0.43984962406
          0.44609665428 0.49662162162 0.43984962406 0.3686440678 0.16759776536 0
          0 0 0 0 0 0
          0 0 0 0 0 0.027932960894
          0 0 0 0 0 0
          0.027932960894 0 0 0.055084745763 0.071428571429 0.040345821326
          0.014164305949 0.012987012987 0.040345821326 0.071428571429 0.055084745763 0
          0 0.067669172932 0.11239193084 0.1074168798 0.037688442211 0.034562211982
          0.1074168798 0.11239193084 0.067669172932 0 0 0.074349442379
          0.16147308782 0.16834170854 0.12376237624 0.11286681716 0.16834170854 0.16147308782
          0.074349442379 0 0 0.084459459459 0.2 0.25806451613
          0.33860045147 0.39211618257 0.25806451613 0.2 0.084459459459 0
          0 0.093984962406 0.25360230548 0.36061381074 0.41959798995 0.46774193548
          0.36061381074 0.25360230548 0.093984962406 0 0 0.10593220339
          0.31493506494 0.40057636888 0.4447592068 0.49090909091 0.40057636888 0.31493506494
          0.10593220339 0 0 0.16759776536 0.3686440678 0.43984962406
          0.44609665428 0.49662162162 0.43984962406 0.3686440678 0.16759776536 0
          0 0.1677852349 0.36734693878 0.43891402715 0.44642857143 0.49593495935
          0.43891402715 0.36734693878 0.1677852349 0
        </DataArray>
        <DataArray type="Float64" Name="Displacement" NumberOfComponents="3" format="ascii" RangeMin="1.0886834668" RangeMax="1.1146944175">
          -0.0072699918381 1.0945771339 -0.02460071453 -0.0099811447079 1.0974340887 -0.02684640616
          -0.010256674715 1.0962911153 -0.024962754694 -0.010369018065 1.097075197 -0.026630759211
          -0.010690326023 1.0967436636 -0.026785266659 -0.01064093335 1.0953579461 -0.025929351086
          -0.010992813856 1.0955518623 -0.026622350934 -0.011027027218 1.0936099177 -0.024761104747
          -0.011351801941 1.0937661343 -0.026854200528 -0.014430275287 1.0898248353 -0.024459895253
          -0.0090543023949 1.0970843201 -0.027883948128 -0.009801298645 1.0968830077 -0.026860066506
          -0.010220023594 1.0982617456 -0.027667212207 -0.010101400823 1.0984170014 -0.028551170984
          -0.01033591977 1.0980049318 -0.028573463225 -0.010088571538 1.0972012091 -0.028350805729
          -0.010094644809 1.096794215 -0.028438417158 -0.010029817332 1.0957463733 -0.027705113878
          -0.010451325774 1.0932050442 -0.026698221901 -0.011218640437 1.0922609535 -0.028069994326
          -0.008282713506 1.097758785 -0.028627924328 -0.0099828166487 1.098388702 -0.027781712893
          -0.010583883693 1.0990547012 -0.028090353092 -0.0097467682177 1.0976231541 -0.028372488445
          -0.0096180566392 1.0967169937 -0.028182764605 -0.0095258226986 1.0973405023 -0.029089291983
          -0.0092021381219 1.0960564243 -0.028419740986 -0.0085483025105 1.0964000309 -0.02810096968
          -0.0089998629072 1.0946491406 -0.02763508036 -0.010682271158 1.0930335157 -0.028343122199
          -0.0092031128464 1.0980094153 -0.028668686673 -0.010291902118 1.098835016 -0.027961892684
          -0.0094602646656 1.0979289388 -0.028868863255 -0.009097100233 1.0969758018 -0.028900578154
          -0.0089264747614 1.0963055707 -0.028808376953 -0.0089933824981 1.0963205796 -0.028824111335
          -0.0089420773144 1.0952007082 -0.028968531508 -0.0085819836286 1.0953827854 -0.028899748415
          -0.0077452023303 1.0951048778 -0.027821530447 -0.0087951319502 1.0932475818 -0.028472000134
          -0.010514760462 1.0989025132 -0.027879761561 -0.0093124384639 1.098721695 -0.029150691135
          -0.0090263043702 1.0973030049 -0.02955421374 -0.0086230291861 1.0968231504 -0.029971014339
          -0.009239948643 1.0962545589 -0.029661613026 -0.0082402912484 1.0961710852 -0.029429945323
          -0.0084361466448 1.0952815661 -0.030089997438 -0.0080097363722 1.094752571 -0.029512609306
          -0.007672211993 1.0951073535 -0.029038116619 -0.0065082527086 1.094051806 -0.027723998012
          -0.010818506206 1.0983117661 -0.028546214713 -0.007744832529 1.0987103499 -0.029844010703
          -0.0090322556766 1.0975699367 -0.030080583589 -0.0088161944872 1.0973212922 -0.030317845818
          -0.0064142055863 1.0961685794 -0.029142872439 -0.0097130064588 1.0957717398 -0.028978563257
          -0.0071764151243 1.0955677129 -0.030316931989 -0.0069244032918 1.095044009 -0.029946773406
          -0.0082387613112 1.0949327827 -0.029709333653 -0.0051456767187 1.0934811465 -0.028510786731
          -0.0087967691351 1.0991589648 -0.03008002986 -0.0075625914848 1.0984425581 -0.030357651897
          -0.0076160487032 1.0985888857 -0.030354654469 -0.0085776249914 1.0969995072 -0.031587517682
          -0.0070703739441 1.0956703954 -0.032486986304 -0.007918736107 1.0952030064 -0.032491207845
          -0.006282734431 1.0953969221 -0.03161236935 -0.0072540551299 1.0959408798 -0.030254129345
          -0.007258460102 1.0946518617 -0.030219792009 -0.0061273627669 1.0943995141 -0.030049288772
          -0.0094028193569 1.0986852097 -0.028882774963 -0.0063383248582 1.0980907887 -0.032644549719
          -0.0089338086616 1.09756879 -0.031361039195 -0.0067344822416 1.0967459578 -0.031947720737
          -0.0089888460571 1.0973346343 -0.032660457542 -0.0048997138822 1.0967595189 -0.032700932115
          -0.0072305444241 1.0951266309 -0.031897072922 -0.0048149400054 1.0948731631 -0.031295617469
          -0.0073703996364 1.0943922391 -0.03245994481 -0.0045342199267 1.0939597921 -0.028826726519
          -0.0064164875483 1.0997213545 -0.029730856925 -0.014188068989 1.096611142 -0.028507228538
          -0.0052666868887 1.0989873902 -0.030952221565 -0.0094236653098 1.0965884123 -0.032569425145
          -0.0050979600023 1.0978163196 -0.032103256325 -0.0076167095797 1.0970034072 -0.031846094612
          -0.0034356272924 1.0948359435 -0.032477591999 -0.0076223545719 1.096254376 -0.030921335499
          0.0012848941196 1.0927931927 -0.028425307857 -0.0065884727252 1.0950034033 -0.029762591755
          -0.00076331536219 1.1069186069 -0.032504960236 -0.0075924215577 1.0919240814 -0.036919756215
          -0.0034184769944 1.0975918883 -0.034028289187 -0.0037291889502 1.0985623816 -0.032415868322
          -0.0019921698343 1.1002777122 -0.02940110158 -0.0094337580992 1.1002052839 -0.029208848019
          -0.0079635655628 1.0969691768 -0.032439285837 -0.0083782523894 1.0949988305 -0.033925198401
          -0.004100944416 1.0880494861 -0.036921388501 -0.010809682797 1.1020633045 -0.032453668363
          -0.010769103162 1.0993321156 -0.026513987328 -0.010051233161 1.0996501856 -0.027658879221
          -0.010708891951 1.0988903906 -0.026521562627 -0.010284605954 1.098661301 -0.027060142146
          -0.010921346281 1.0979195602 -0.027216439234 -0.010642847873 1.0973293987 -0.026758582383
          -0.011121255675 1.0970075104 -0.026973810065 -0.010554767024 1.0963655181 -0.026624933007
          -0.011310372478 1.0959497409 -0.027602340439 -0.010490856712 1.0945270887 -0.026511954317
          -0.0097141787364 1.098401896 -0.026136691046 -0.010752851197 1.0991621506 -0.027793536171
          -0.010656628285 1.0990364146 -0.027414115123 -0.010106894157 1.0983790435 -0.027911695086
          -0.010240770399 1.097383897 -0.027466693423 -0.010094548783 1.0972981258 -0.027881058594
          -0.0101481973 1.0966417075 -0.027752063532 -0.0096002315295 1.0963959274 -0.027340376538
          -0.0094704732535 1.0954299823 -0.027766287058 -0.010478943419 1.0934084467 -0.025744062233
          -0.01108878032 1.0994979508 -0.026856691188 -0.0097524989394 1.0993287253 -0.028301134103
          -0.0096860079865 1.0985923262 -0.028131029448 -0.0096589286092 1.0979986949 -0.028114618404
          -0.0096354113761 1.0974571226 -0.028225681768 -0.0096005718819 1.0970389057 -0.028377048033
          -0.009532607038 1.0963704962 -0.028022126467 -0.0094967460009 1.0959164559 -0.028047066475
          -0.0094577344144 1.0955815195 -0.028160335067 -0.0080573203792 1.0946717122 -0.026706929203
          -0.0094625832464 1.0988861518 -0.028516564974 -0.0091393002118 1.0990359293 -0.02897348335
          -0.0090550489711 1.0986448806 -0.028972811391 -0.0087482851706 1.0984200324 -0.029586240109
          -0.0090704018991 1.0974040505 -0.028832357739 -0.0090183143895 1.0969090164 -0.028849168577
          -0.0093519835457 1.0968709716 -0.029626147583 -0.0090752831903 1.0959237803 -0.028873206038
          -0.0090107435706 1.0953396338 -0.028869595719 -0.0087238123965 1.094032773 -0.028290198816
          -0.0090941332609 1.1000270072 -0.029199232099 -0.0086413319322 1.0990871449 -0.029818600912
          -0.009023401098 1.0983561939 -0.029629157247 -0.0088773841574 1.0978695617 -0.029454049972
          -0.0084644561541 1.0976009238 -0.029329216218 -0.0084932003815 1.096954374 -0.029424886102
          -0.0082776205092 1.0963562876 -0.029354052517 -0.008055418911 1.095662532 -0.029523912673
          -0.0084382861707 1.0953843337 -0.029769823826 -0.0079615118998 1.0952504941 -0.029082827998
          -0.0090361754344 1.0991293425 -0.029100277604 -0.0078856644156 1.0993424137 -0.030254512585
          -0.0082339666847 1.0984462836 -0.030288647845 -0.0087693044885 1.0975905186 -0.03081261159
          -0.0083567141401 1.0973196744 -0.030467044963 -0.0075688074443 1.0967265471 -0.030439014034
          -0.0072536920644 1.0960012636 -0.030803124703 -0.007744669866 1.0957867102 -0.030222582097
          -0.0081590506064 1.0956156732 -0.030206054398 -0.0069655971566 1.0944324077 -0.02895932763
          -0.0073349381337 1.0996085239 -0.031372688651 -0.006918425578 1.0992222878 -0.031490024654
          -0.0077699370629 1.0985623689 -0.030757784614 -0.0087310613637 1.0976747671 -0.031897144636
          -0.0078274938801 1.0972991505 -0.031212850145 -0.0072524637128 1.0966577415 -0.031468371367
          -0.0062512831103 1.0960516202 -0.031926136515 -0.0071826976284 1.0959350669 -0.03074523239
          -0.0080546023988 1.0955050935 -0.031387419526 -0.0075724478537 1.094781095 -0.031218631399
          -0.0059947569176 1.0996482271 -0.033419630941 -0.0064860707 1.0988774649 -0.032270802711
          -0.0070272916082 1.0983909698 -0.031686182372 -0.0070534682356 1.0979755928 -0.031641910475
          -0.0064806147004 1.0966298851 -0.031877590865 -0.0073686418834 1.096105862 -0.031863731308
          -0.0068045759104 1.096425194 -0.0316081032 -0.0067853762254 1.0957677272 -0.031649009586
          -0.0074011003652 1.0951730201 -0.032230609837 -0.0078776880269 1.0949131084 -0.033231515562
          -0.005590362212 1.1008964905 -0.031279928779 -0.0060161947396 1.0990951364 -0.032439188252
          -0.0056249324664 1.0984161442 -0.032663184039 -0.0059253754419 1.097403327 -0.032277223026
          -0.0053667985647 1.0958916393 -0.032204839224 -0.0074273061146 1.0954047887 -0.032221489548
          -0.0069535877295 1.0957884411 -0.032242530371 -0.0072546593309 1.0957391075 -0.032610843056
          -0.0069000542617 1.095419734 -0.032393094345 -0.0073479649494 1.0962844188 -0.031204038551
          -0.0004497864184 1.1033508025 -0.036234227283 -0.0036140405192 1.1010039667 -0.032272004297
          -0.0040716345397 1.098308652 -0.034611932592 -0.0068213587712 1.0976109355 -0.035282912499
          -0.0047049429827 1.0929722014 -0.035485210161 -0.0069940537156 1.0922622655 -0.03567948486
          -0.0048908712008 1.0960722673 -0.035076070189 -0.0078757358618 1.095635402 -0.034368455912
          -0.0083829130983 1.097222022 -0.032281801035 -0.011417926783 1.0986407718 -0.036085256683
          -0.01134604637 1.1015818444 -0.026381536762 -0.0095112936201 1.0992776302 -0.026695197768
          -0.010901396962 1.0995137749 -0.026661070016 -0.010965364405 1.0985162408 -0.026132004856
          -0.010626795637 1.0990056646 -0.027405403797 -0.010693399281 1.098222886 -0.02744822893
          -0.010321760295 1.0969812794 -0.026222521939 -0.010415558681 1.0968972668 -0.026692210165
          -0.011869040605 1.0954045528 -0.026670457232 -0.0098872161195 1.0968635449 -0.02620352376
          -0.0087131437383 1.0989205172 -0.027953789929 -0.010643125675 1.1000666826 -0.027145513242
          -0.010567569148 1.1001163699 -0.02767330783 -0.010065161946 1.0988501441 -0.027612374902
          -0.010080855242 1.0980908823 -0.027345197156 -0.010117817389 1.0976938425 -0.027429381157
          -0.010226986833 1.0971487669 -0.027518858747 -0.0096630255002 1.0974536151 -0.027612166542
          -0.0095690618308 1.0963500206 -0.027017443711 -0.011623866149 1.094099723 -0.027850561957
          -0.010039018713 1.1010187398 -0.028374860005 -0.0098723221825 1.0997402805 -0.02787463865
          -0.0096178753864 1.0994570964 -0.02814650195 -0.0095510514481 1.0986240025 -0.02802669317
          -0.0095786007967 1.0982324864 -0.028109393376 -0.0095857914581 1.0976867685 -0.028134723081
          -0.0096665757398 1.0970717973 -0.027995613093 -0.0096257572698 1.0968088157 -0.028130349057
          -0.0093368250491 1.0960086614 -0.027748658421 -0.0091034325471 1.0961913866 -0.028198058957
          -0.0088684818866 1.1001409426 -0.028999857325 -0.0093409115988 1.0999112881 -0.028768314355
          -0.0091056168841 1.0992149625 -0.028805403814 -0.0090719623973 1.0986994117 -0.028948401054
          -0.0089898129263 1.0981607481 -0.028811530144 -0.0090683896269 1.0976548569 -0.028927484136
          -0.0090799902158 1.0971075062 -0.028924454459 -0.009069700222 1.0965734739 -0.028743049432
          -0.0088975246762 1.0961949361 -0.028718526086 -0.0092623417099 1.0953361727 -0.028842875283
          -0.008541496379 1.1002809683 -0.029494695851 -0.0086236361405 1.0997541057 -0.029549241788
          -0.0086387636838 1.0992475531 -0.029549803558 -0.0087390996476 1.0986190835 -0.029609725243
          -0.0085585435845 1.0981357156 -0.029634275401 -0.0084762268065 1.0976738275 -0.029624284211
          -0.0083492511757 1.0970671412 -0.029572357144 -0.0084549568231 1.096627487 -0.029493982782
          -0.0084798991458 1.0960289786 -0.029474158864 -0.0085363319642 1.0954826874 -0.029418167502
          -0.0078858503274 1.1007725944 -0.030219778885 -0.0080202783761 1.0998874913 -0.030209788993
          -0.0080027976433 1.0992785213 -0.03033313771 -0.008274281046 1.0986745705 -0.030476590876
          -0.0084204275145 1.0980042524 -0.030552865507 -0.0074439547953 1.097392828 -0.030655022275
          -0.0076992724316 1.0969451906 -0.030419279694 -0.0080755783518 1.0966221462 -0.030281715447
          -0.007972640488 1.0961470775 -0.030097967474 -0.0081731139579 1.0959785772 -0.030147735849
          -0.0069848791764 1.1004144499 -0.031597465953 -0.0081147468554 1.0998396664 -0.030689348236
          -0.0083545720551 1.099123157 -0.030849282302 -0.0078357582337 1.098560435 -0.031334057472
          -0.0078264710552 1.0979775293 -0.03127958556 -0.0071126558852 1.0974006771 -0.031282996646
          -0.0071044768495 1.0969627489 -0.031280875068 -0.0066391084684 1.0964553959 -0.030797454931
          -0.0068981707604 1.0961461562 -0.030605520359 -0.008026765247 1.0957038556 -0.031557641941
          -0.0066941044891 1.100806275 -0.031375730833 -0.0066870514123 1.1003368658 -0.031298513654
          -0.0058790246218 1.0992534447 -0.031813810927 -0.0067279591661 1.0988039845 -0.031588556589
          -0.0063979325848 1.0978463363 -0.031508209387 -0.0075334853902 1.0972109531 -0.031655047715
          -0.0071301222352 1.0971412948 -0.031607788746 -0.0080228855948 1.0966129667 -0.031771875416
          -0.0072131410765 1.0966688963 -0.031242381931 -0.007252892345 1.0960487537 -0.031309072875
          -0.0065683668895 1.1002764626 -0.032863253625 -0.0058374975025 1.1006854922 -0.032120466187
          -0.0062179545402 1.0995690107 -0.03254369027 -0.0061271437076 1.0989422122 -0.032442248682
          -0.0044509724284 1.0967184135 -0.031706527858 -0.0085002052693 1.0962360056 -0.03166848986
          -0.0067159696664 1.0973254291 -0.032450794454 -0.0066940521911 1.0969248358 -0.032484859123
          -0.0070578378139 1.0969723866 -0.032052245727 -0.0063468765666 1.0955592456 -0.03276155271
          -0.0073118420893 1.0977997299 -0.034469209819 -0.0080927767664 1.0983770633 -0.034266434403
          -0.0056481696503 1.0974409253 -0.034523103548 -0.0027493890277 1.0972282039 -0.03445907685
          -0.0075276139844 1.098291099 -0.032951440459 -0.0041682081984 1.0978187223 -0.032935104894
          -0.0090654426588 1.0956900651 -0.034381918892 -0.0062311205162 1.0948934967 -0.034375335225
          -0.003797088854 1.0947038874 -0.034162568982 -0.0045054806801 1.0930633027 -0.034273725536
          -0.011094289244 1.1017078236 -0.025876801904 -0.010762535758 1.1012010777 -0.026286891612
          -0.010624257108 1.1002540484 -0.026826736125 -0.010796137979 1.0997795779 -0.026891463022
          -0.01057221622 1.0989613041 -0.026648162269 -0.010864792426 1.098296041 -0.02663234935
          -0.010606520787 1.09814506 -0.026901001136 -0.010687347963 1.0975686775 -0.026751877534
          -0.010548435782 1.0974179241 -0.026255071086 -0.010248268668 1.0969512737 -0.025793897769
          -0.010475506269 1.1017581206 -0.027519055334 -0.010465448436 1.1009464517 -0.027252004511
          -0.0098676731252 1.0999156091 -0.027453292473 -0.010085150348 1.0993824309 -0.027372373052
          -0.010082885919 1.098914805 -0.027327813264 -0.010130729724 1.0984560612 -0.027395613974
          -0.010196832775 1.0977842472 -0.027332839989 -0.010399196863 1.0972164822 -0.027425020438
          -0.0098230349667 1.0972100433 -0.027142528734 -0.0098532711768 1.0970501661 -0.027405919644
          -0.0097622202549 1.1013617539 -0.027816610477 -0.0091201355778 1.100566541 -0.028243189538
          -0.0094009297867 1.1000002401 -0.028062804548 -0.0095403035421 1.0994192081 -0.028079500153
          -0.009576577106 1.0989087215 -0.028103901436 -0.0096198727248 1.0983962973 -0.028059524447
          -0.0096874530444 1.097861121 -0.028062584 -0.0097788786286 1.097353899 -0.028023544077
          -0.010087995577 1.0968522964 -0.028148199752 -0.0095458670806 1.0965209524 -0.027744140492
          -0.0091958273035 1.1009501558 -0.028440201563 -0.0092220901584 1.1007080288 -0.028744141209
          -0.0089937603097 1.0999839626 -0.028893451165 -0.0090399819927 1.0994355548 -0.028896612665
          -0.0090824601309 1.0989167256 -0.02885132269 -0.0090379960127 1.0984020951 -0.02888140065
          -0.0090779630284 1.0978899813 -0.028799867458 -0.0091688541573 1.0973659942 -0.028840929647
          -0.0089876936499 1.0970225449 -0.028662697605 -0.0090773424704 1.0961154217 -0.028410891626
          -0.0086407630602 1.1012279797 -0.029393051513 -0.0083094598525 1.1006381206 -0.029566253626
          -0.0084542251313 1.1000426203 -0.029654700028 -0.0084997071739 1.0994532915 -0.029481478606
          -0.0084792709518 1.098922918 -0.02958461366 -0.0085581004582 1.0984005725 -0.029501342652
          -0.0085855685076 1.0978949055 -0.029471907487 -0.0086213553738 1.0974195119 -0.029593103394
          -0.0088274416082 1.0969309275 -0.029483024665 -0.0084920047562 1.0964232326 -0.029271665165
          -0.0078383569515 1.1012566135 -0.030318721922 -0.008072715461 1.1006139052 -0.030226320887