<?xml version="1.0"?>
<VTKFile type="UnstructuredGrid" version="0.1" byte_order="LittleEndian" compressor="vtkZLibDataCompressor">
  <UnstructuredGrid>
    <FieldData>
      <DataArray type="Float64" Name="TIME" NumberOfTuples="1" format="ascii" RangeMin="0.24359557705" RangeMax="0.24359557705">
        0.24359557705
      </DataArray>
    </FieldData>
    <Piece NumberOfPoints="1000" NumberOfCells="0">
      <PointData>
        <DataArray type="Float64" Name="Damage" format="ascii" RangeMin="0" RangeMax="0.49719101124">
          0 0 0 0 0 0
          0 0 0 0 0 0.027932960894
          0 0 0 0 0 0
          0.027932960894 0 0 0.055084745763 0.071428571429 0.040345821326
          0.014164305949 0.012987012987 0.040345821326 0.071428571429 0.055084745763 0
          0 0.067669172932 0.11239193084 0.1074168798 0.037688442211 0.034562211982
          0.1074168798 0.11239193084 0.067669172932 0 0 0.074349442379
          0.16147308782 0.16834170854 0.12376237624 0.11286681716 0.16834170854 0.16147308782
          0.074349442379 0 0 0.084459459459 0.2 0.25806451613
          0.33860045147 0.39211618257 0.25806451613 0.2 0.084459459459 0
          0 0.093984962406 0.25360230548 0.36061381074 0.41959798995 0.46774193548
          0.36061381074 0.25360230548 0.093984962406 0 0 0.10593220339
          0.31493506494 0.40057636888 0.4447592068 0.49090909091 0.40057636888 0.31493506494
          0.10593220339 0 0 0.16759776536 0.3686440678 0.43984962406
          0.44609665428 0.49662162162 0.43984962406 0.3686440678 0.16759776536 0
          0 0.1677852349 0.36734693878 0.43891402715 0.44642857143 0.49593495935
          0.43891402715 0.36734693878 0.1677852349 0 0 0
          0 0 0 0 0 0
          0 0 0 0.027906976744 0 0
          0 0 0 0 0.027906976744 0
          0 0.056338028169 0.072776280323 0.040669856459 0.014117647059 0.012931034483
          0.040669856459 0.072776280323 0.056338028169 0 0 0.06875
          0.11483253589 0.10828025478 0.0375782881 0.034416826004 0.10828025478 0.11483253589
          0.06875 0 0 0.074303405573 0.16235294118 0.16910229645
          0.12371134021 0.11257035647 0.16910229645 0.16235294118 0.074303405573 0
          0 0.084269662921 0.20043103448 0.25812619503 0.33771106942 0.39242685026
          0.25812619503 0.20043103448 0.084269662921 0 0 0.09375
          0.25358851675 0.36093418259 0.41962421712 0.46845124283 0.36093418259 0.25358851675
          0.09375 0 0 0.10563380282 0.3153638814 0.4019138756
          0.44470588235 0.49137931034 0.4019138756 0.3153638814 0.10563380282 0
          0 0.16744186047 0.36971830986 0.440625 0.44582043344 0.49719101124
          0.440625 0.36971830986 0.16744186047 0 0 0.16759776536
          0.3686440678 0.43984962406 0.44609665428 0.49662162162 0.43984962406 0.3686440678
          0.16759776536 0 0 0 0 0
          0 0 0 0 0 0
          0 0.024647887324 0 0 0 0
          0 0 0.024647887324 0 0 0.051212938005
          0.06875 0.038817005545 0.012635379061 0.011666666667 0.038817005545 0.06875
          0.051212938005 0 0 0.064593301435 0.10905730129 0.10491803279
          0.036858974359 0.034023668639 0.10491803279 0.10905730129 0.064593301435 0
          0 0.070588235294 0.15523465704 0.16506410256 0.12283464567 0.11271676301
          0.16506410256 0.15523465704 0.070588235294 0 0 0.081896551724
          0.19333333333 0.25443786982 0.33959537572 0.38985313752 0.25443786982 0.19333333333
          0.081896551724 0 0 0.093301435407 0.24768946396 0.35573770492
          0.41987179487 0.46449704142 0.35573770492 0.24768946396 0.093301435407 0
          0 0.10781671159 0.30833333333 0.39556377079 0.4440433213 0.48666666667
          0.39556377079 0.30833333333 0.10781671159 0 0 0.16197183099
          0.35579514825 0.43062200957 0.44470588235 0.49137931034 0.43062200957 0.35579514825
          0.16197183099 0 0 0.16101694915 0.3538961039 0.42939481268
          0.4447592068 0.49090909091 0.42939481268 0.3538961039 0.16101694915 0
          0 0 0 0 0 0
          0 0 0 0 0 0.025
          0 0 0 0 0 0
          0.025 0 0 0.05023923445 0.068391866913 0.039344262295
          0.012820512821 0.011834319527 0.039344262295 0.068391866913 0.05023923445 0
          0 0.063694267516 0.10819672131 0.10465116279 0.036984352774 0.034120734908
          0.10465116279 0.10819672131 0.063694267516 0 0 0.070981210856
          0.15544871795 0.16500711238 0.12290502793 0.11282051282 0.16500711238 0.15544871795
          0.070981210856 0 0 0.082217973231 0.19378698225 0.25459317585
          0.33974358974 0.38981042654 0.25459317585 0.19378698225 0.082217973231 0
          0 0.093418259023 0.24918032787 0.35610465116 0.41963015647 0.46456692913
          0.35610465116 0.24918032787 0.093418259023 0 0 0.10765550239
          0.30868761553 0.39508196721 0.44391025641 0.48668639053 0.39508196721 0.30868761553
          0.10765550239 0 0 0.1625 0.35645933014 0.43099787686
          0.44467640919 0.4913957935 0.43099787686 0.35645933014 0.1625 0
          0 0.16165413534 0.35446685879 0.42966751918 0.44472361809 0.49078341014
          0.42966751918 0.35446685879 0.16165413534 0 0 0
          0 0 0 0 0 0
          0 0 0 0.02786377709 0 0
          0 0 0 0 0.02786377709 0
          0 0.054117647059 0.070397111913 0.040064102564 0.014173228346 0.013005780347
          0.040064102564 0.070397111913 0.054117647059 0 0 0.066805845511
          0.11057692308 0.106685633 0.037709497207 0.034615384615 0.106685633 0.11057692308
          0.066805845511 0 0 0.074226804124 0.16062992126 0.16759776536
          0.12362637363 0.11292346299 0.16759776536 0.16062992126 0.074226804124 0
          0 0.084427767355 0.19942196532 0.25769230769 0.33877038896 0.39145496536
          0.25769230769 0.19942196532 0.084427767355 0 0 0.093945720251
          0.25320512821 0.35988620199 0.41899441341 0.46666666667 0.35988620199 0.25320512821
          0.093945720251 0 0 0.10588235294 0.31407942238 0.39903846154
          0.44409448819 0.48988439306 0.39903846154 0.31407942238 0.10588235294 0
          0 0.16718266254 0.36705882353 0.43841336117 0.44536082474 0.49530956848
          0.43841336117 0.36705882353 0.16718266254 0 0 0.16728624535
          0.36543909348 0.43718592965 0.44554455446 0.49435665914 0.43718592965 0.36543909348
          0.16728624535 0 0 0 0 0
          0 0 0 0 0 0
          0 0.025280898876 0 0 0 0
          0 0 0.025280898876 0 0 0.049568965517
          0.066666666667 0.038461538462 0.013005780347 0.012016021362 0.038461538462 0.066666666667
          0.049568965517 0 0 0.06309751434 0.1050295858 0.10367454068
          0.037179487179 0.034360189573 0.10367454068 0.1050295858 0.06309751434 0
          0 0.071294559099 0.15462427746 0.1641025641 0.12296110414 0.11316397229
          0.1641025641 0.15462427746 0.071294559099 0 0 0.082616179002
          0.19359145527 0.25473933649 0.34064665127 0.38930481283 0.25473933649 0.19359145527
          0.082616179002 0 0 0.093690248566 0.24852071006 0.35564304462
          0.41923076923 0.46327014218 0.35564304462 0.24852071006 0.093690248566 0
          0 0.10775862069 0.30833333333 0.39349112426 0.4436416185 0.48598130841
          0.39349112426 0.30833333333 0.10775862069 0 0 0.16292134831
          0.35560344828 0.43021032505 0.44465290807 0.49053356282 0.43021032505 0.35560344828
          0.16292134831 0 0 0.16216216216 0.35324675325 0.42857142857
          0.44469525959 0.48962655602 0.42857142857 0.35324675325 0.16216216216 0
          0 0 0 0 0 0
          0 0 0 0 0 0.025
          0 0 0 0 0 0
          0.025 0 0 0.05023923445 0.068391866913 0.039344262295
          0.012820512821 0.011834319527 0.039344262295 0.068391866913 0.05023923445 0
          0 0.063694267516 0.10819672131 0.10465116279 0.036984352774 0.034120734908
          0.10465116279 0.10819672131 0.063694267516 0 0 0.070981210856
          0.15544871795 0.16500711238 0.12290502793 0.11282051282 0.16500711238 0.15544871795
          0.070981210856 0 0 0.082217973231 0.19378698225 0.25459317585
          0.33974358974 0.38981042654 0.25459317585 0.19378698225 0.082217973231 0
          0 0.093418259023 0.24918032787 0.35610465116 0.41963015647 0.46456692913
          0.35610465116 0.24918032787 0.093418259023 0 0 0.10765550239
          0.30868761553 0.39508196721 0.44391025641 0.48668639053 0.39508196721 0.30868761553
          0.10765550239 0 0 0.1625 0.35645933014 0.43099787686
          0.44467640919 0.4913957935 0.43099787686 0.35645933014 0.1625 0
          0 0.16165413534 0.35446685879 0.42966751918 0.44472361809 0.49078341014
          0.42966751918 0.35446685879 0.16165413534 0 0 0
          0 0 0 0 0 0
          0 0 0 0.024647887324 0 0
          0 0 0 0 0.024647887324 0
          0 0.051212938005 0.06875 0.038817005545 0.012635379061 0.011666666667
          0.038817005545 0.06875 0.051212938005 0 0 0.064593301435
          0.10905730129 0.10491803279 0.036858974359 0.034023668639 0.10491803279 0.10905730129
          0.064593301435 0 0 0.070588235294 0.15523465704 0.16506410256
          0.12283464567 0.11271676301 0.16506410256 0.15523465704 0.070588235294 0
          0 0.081896551724 0.19333333333 0.25443786982 0.33959537572 0.38985313752
          0.25443786982 0.19333333333 0.081896551724 0 0 0.093301435407
          0.24768946396 0.35573770492 0.41987179487 0.46449704142 0.35573770492 0.24768946396
          0.093301435407 0 0 0.10781671159 0.30833333333 0.39556377079
          0.4440433213 0.48666666667 0.39556377079 0.30833333333 0.10781671159 0
          0 0.16197183099 0.35579514825 0.43062200957 0.44470588235 0.49137931034
          0.43062200957 0.35579514825 0.16197183099 0 0 0.16101694915
          0.3538961039 0.42939481268 0.4447592068 0.49090909091 0.42939481268 0.3538961039
          0.16101694915 0 0 0 0 0
          0 0 0 0 0 0
          0 0.027906976744 0 0 0 0
          0 0 0.027906976744 0 0 0.056338028169
          0.072776280323 0.040669856459 0.014117647059 0.012931034483 0.040669856459 0.072776280323
          0.056338028169 0 0 0.06875 0.11483253589 0.10828025478
          0.0375782881 0.034416826004 0.10828025478 0.11483253589 0.06875 0
          0 0.074303405573 0.16235294118 0.16910229645 0.12371134021 0.11257035647
          0.16910229645 0.16235294118 0.074303405573 0 0 0.084269662921
          0.20043103448 0.25812619503 0.33771106942 0.39242685026 0.25812619503 0.20043103448
          0.084269662921 0 0 0.09375 0.25358851675 0.36093418259
          0.41962421712 0.46845124283 0.36093418259 0.25358851675 0.09375 0
          0 0.10563380282 0.3153638814 0.4019138756 0.44470588235 0.49137931034
          0.4019138756 0.3153638814 0.10563380282 0 0 0.16744186047
          0.36971830986 0.440625 0.44582043344 0.49719101124 0.440625 0.36971830986
          0.16744186047 0 0 0.16759776536 0.3686440678 0.43984962406
          0.44609665428 0.49662162162 0.43984962406 0.3686440678 0.16759776536 0
          0 0 0 0 0 0
          0 0 0 0 0 0.027932960894
          0 0 0 0 0 0
          0.027932960894 0 0 0.055084745763 0.071428571429 0.040345821326
          0.014164305949 0.012987012987 0.040345821326 0.071428571429 0.055084745763 0
          0 0.067669172932 0.11239193084 0.1074168798 0.037688442211 0.034562211982
          0.1074168798 0.11239193084 0.067669172932 0 0 0.074349442379
          0.16147308782 0.16834170854 0.12376237624 0.11286681716 0.16834170854 0.16147308782
          0.074349442379 0 0 0.084459459459 0.2 0.25806451613
          0.33860045147 0.39211618257 0.25806451613 0.2 0.084459459459 0
          0 0.093984962406 0.25360230548 0.36061381074 0.41959798995 0.46774193548
          0.36061381074 0.25360230548 0.093984962406 0 0 0.10593220339
          0.31493506494 0.40057636888 0.4447592068 0.49090909091 0.40057636888 0.31493506494
          0.10593220339 0 0 0.16759776536 0.3686440678 0.43984962406
          0.44609665428 0.49662162162 0.43984962406 0.3686440678 0.16759776536 0
          0 0.1677852349 0.36734693878 0.43891402715 0.44642857143 0.49593495935
          0.43891402715 0.36734693878 0.1677852349 0
        </DataArray>
        <DataArray type="Float64" Name="Displacement" NumberOfComponents="3" format="ascii" RangeMin="1.644591611" RangeMax="1.6615248093">
          -0.0016311657627 1.6474082331 -0.0081758485209 -0.0042534402907 1.6515617466 -0.012717031495
          -0.0048319918821 1.6505391907 -0.01057578113 -0.0043775745427 1.651854561 -0.012327943714
          -0.004485452217 1.6518361953 -0.012481053474 -0.0044786587312 1.6513811985 -0.012404325597
          -0.0044835630006 1.6511412041 -0.012312150662 -0.0040889974947 1.6494263031 -0.010645735616
          -0.004605466974 1.6499201458 -0.012672978965 -0.0074036061011 1.6451506801 -0.0082724008777
          -0.0036809262375 1.6505655077 -0.012335037814 -0.0038603130907 1.6507282186 -0.011924232981
          -0.0043684403579 1.6508084278 -0.011278800691 -0.004167139089 1.649871113 -0.010796887131
          -0.0043114403664 1.6498883358 -0.010887550366 -0.0040712083362 1.6497546595 -0.010963613828
          -0.0041978419333 1.6493032324 -0.010825026364 -0.0040547543998 1.6495037245 -0.011125764217
          -0.0045352124097 1.6492319038 -0.011996167329 -0.0047507623421 1.6485099366 -0.012321359732
          -0.0045161220336 1.6512172724 -0.010994113811 -0.0046381443445 1.6509411634 -0.011262216672
          -0.0040750505698 1.6506692246 -0.01162853473 -0.0041731256072 1.6509149346 -0.011788725647
          -0.0040924533726 1.6502563829 -0.011655849829 -0.0039803259322 1.6497354545 -0.011529615427
          -0.0038254260487 1.65028653 -0.011819082074 -0.0038681453775 1.6495290171 -0.011615094417
          -0.0033581537954 1.6493661762 -0.011238924508 -0.0034368754411 1.6491757592 -0.010975115009
          -0.0041560350115 1.6520358209 -0.011799843101 -0.0039938231702 1.6518060592 -0.01144494408
          -0.003696338625 1.6509175555 -0.012225150208 -0.0036734056322 1.650748564 -0.01199861405
          -0.0038912209065 1.6497904145 -0.011673907936 -0.0037082439242 1.6495229414 -0.01174320462
          -0.0037210248417 1.6499486359 -0.011905638616 -0.0037935896091 1.6498222596 -0.012220730713
          -0.0035481826733 1.6501965545 -0.011427672048 -0.0033171086335 1.6500172677 -0.011751948903
          -0.0040387387898 1.6518460694 -0.011457772453 -0.0035881854854 1.6516417842 -0.012080841012
          -0.0035021255883 1.6503974862 -0.012068053706 -0.0034501593279 1.6503283254 -0.012106747039
          -0.003314406131 1.6498298841 -0.01194125068 -0.0034405714234 1.649744475 -0.012199827931
          -0.0036298569381 1.6496743949 -0.012101186983 -0.0035220841933 1.6492677426 -0.0120121433
          -0.0034798835695 1.6500167968 -0.012072264888 -0.0030046606128 1.6497796895 -0.011420553543
          -0.003522823024 1.6517048129 -0.011484643273 -0.0030250134966 1.6517065797 -0.012286495777
          -0.0036325369218 1.6502683548 -0.012812921935 -0.0037305153868 1.6500489037 -0.012634174792
          -0.0059831797196 1.6492842435 -0.01457921907 -0.00051444185855 1.6489616475 -0.01461910661
          -0.002805622783 1.6494634733 -0.012715930081 -0.0029315116488 1.6491694572 -0.012759685247
          -0.0035930568157 1.6501250686 -0.012288648788 -0.0030914262644 1.6495641892 -0.011490353162
          -0.0024199532922 1.6524479557 -0.012224233224 -0.0035258237426 1.6518854191 -0.011838938364
          -0.0031967680351 1.6507752579 -0.013049908131 -0.0032931117999 1.6510365564 -0.012311987484
          -0.0022290673434 1.6509330367 -0.011790225934 -0.0040209593706 1.6506951216 -0.011725711562
          -0.0028321198433 1.6503222298 -0.012281319077 -0.0029464805595 1.6496010891 -0.013036838412
          -0.0026649659432 1.65029279 -0.011850550902 -0.0038037525108 1.6504238388 -0.012252548888
          -0.0020090331476 1.6513980993 -0.013123419482 -0.0038838216429 1.6521010045 -0.011188215142
          -0.0012792217283 1.6511352569 -0.012828229089 0.00032724305824 1.6510987272 -0.01157241191
          -0.0071693222117 1.6496916947 -0.016582970538 0.0014572299708 1.6494229307 -0.016583489221
          -0.0060552698938 1.6504185212 -0.011539669755 -0.004399974517 1.6500232182 -0.012779998422
          -0.0016783810754 1.650534806 -0.011061379695 -0.003597724498 1.6493209442 -0.013065778222
          0.00086556520016 1.6526308765 -0.014655137933 -0.0042746301013 1.6517391134 -0.011794832961
          -0.0043132982946 1.6503326096 -0.013007436878 -0.0016289403633 1.6506336557 -0.013725697947
          -0.00015208913871 1.6489169546 -0.014719374927 -0.0050228715945 1.648683145 -0.014694731096
          -0.0036788355705 1.6498664742 -0.01369968462 -0.00097714760982 1.6490806369 -0.013065535728
          -0.00088197422803 1.6501362764 -0.011748387624 -0.0061766778387 1.6505805922 -0.014758245653
          0.00070008234714 1.6582157922 -0.0096958325015 0.0010761294664 1.6585706808 -0.0079609100585
          -0.0017959416359 1.6506175573 -0.013775624345 -6.8203566557e-06 1.6521043606 -0.011703457954
          0.0036146796103 1.6447363533 -0.016643770911 -0.0087493511017 1.6444859964 -0.016456708451
          -0.0048024237633 1.65140717 -0.011706594909 -0.0030404424405 1.6494358255 -0.013780082074
          -0.0058760934641 1.6571510168 -0.0077335107009 -0.0054051306286 1.6561001897 -0.0096744095523
          -0.0050867198717 1.6516598607 -0.01110522492 -0.0053261942804 1.6515478561 -0.010670106773
          -0.0042484473573 1.6509579656 -0.010948485106 -0.0046908794514 1.6506060031 -0.010285530003
          -0.0043998529985 1.6503895175 -0.010541827101 -0.0043862040752 1.6502919481 -0.010607495924
          -0.0042482462338 1.6500062675 -0.01037373786 -0.0046676251707 1.6497495187 -0.010795806877
          -0.0035490907208 1.6499528258 -0.01067861484 -0.0038270392921 1.6496089343 -0.011057851133
          -0.0048510420737 1.6516063791 -0.0108812716 -0.0045779265025 1.6520016015 -0.011804082614
          -0.0041006862034 1.6510479359 -0.011373478948 -0.0042574638908 1.6506605476 -0.010985705713
          -0.0042009175166 1.6504479143 -0.011011757183 -0.0043208416046 1.6505407427 -0.01137510389
          -0.0041555353611 1.6498981572 -0.010879796796 -0.004324142745 1.6498743332 -0.011345586083
          -0.0038831671384 1.6503972105 -0.011779802104 -0.0035952012305 1.6494726429 -0.010822545613
          -0.0040894980136 1.651991342 -0.010686850785 -0.0040101144429 1.6511625702 -0.01132956082
          -0.0044435925071 1.6508262944 -0.011059143231 -0.0039944753887 1.6507338382 -0.011491148104
          -0.0040247522367 1.6506826078 -0.011651347228 -0.0039366552923 1.6504923894 -0.011655814214
          -0.0039998498866 1.6500387315 -0.011535761937 -0.0035235676187 1.6496943073 -0.011061395669
          -0.0039697889 1.6495383923 -0.011315440852 -0.0038668205572 1.6499272239 -0.010640384537
          -0.0042876100397 1.6519357199 -0.011720059037 -0.0037312917041 1.6515717553 -0.012054363667
          -0.0038108212065 1.650939223 -0.011709747465 -0.0038592366629 1.6507675948 -0.011781193164
          -0.0038281124149 1.6503250418 -0.011580317171 -0.0037125311189 1.6501216807 -0.011620113699
          -0.0036216642647 1.6500583212 -0.011741957053 -0.0036915915581 1.6497809269 -0.011679280296
          -0.0037767831055 1.6499827011 -0.012066899714 -0.0032304854083 1.6499337416 -0.011673066736
          -0.0033334532874 1.6513339621 -0.011932752113 -0.0033959050024 1.651494426 -0.012174730102
          -0.0035143190548 1.6511456568 -0.012181694884 -0.0036446261906 1.6506998378 -0.012034155431
          -0.0035135653051 1.6504494617 -0.012275514477 -0.0035243643979 1.6502184911 -0.012301692039
          -0.0034177284974 1.6500283394 -0.011993445933 -0.0034947004575 1.6499957126 -0.012127451969
          -0.0036693493892 1.6498770963 -0.012177259656 -0.0037097656301 1.6492470107 -0.011902715806
          -0.0030584955288 1.651643906 -0.012560701284 -0.0032028152979 1.651448039 -0.012568661025
          -0.0032531839445 1.6511076609 -0.012884538485 -0.0033309900041 1.6507136933 -0.012867498986
          -0.0033802077 1.6503051165 -0.013161422759 -0.0032356767801 1.650088255 -0.013165416448
          -0.00327487536 1.6500333732 -0.012870943376 -0.0033209400797 1.6499590363 -0.012873222115
          -0.0033812654873 1.6498350516 -0.012550520555 -0.003537937597 1.649586013 -0.012518353631
          -0.002201698751 1.6526257174 -0.013223237758 -0.0033044545278 1.6515843863 -0.012441399132
          -0.0029831469021 1.6512642951 -0.01283025553 -0.0035698742281 1.6507414552 -0.012879280016
          -0.0032426285333 1.6504157661 -0.013230437378 -0.0029418924074 1.6500915263 -0.01328065373
          -0.0025674544737 1.6500420774 -0.01289918904 -0.0031884352929 1.6501421454 -0.012830865674
          -0.0028419526732 1.6499924375 -0.012405140681 -0.0039388768182 1.6505939665 -0.013164975617
          -0.002059251627 1.6535800036 -0.012290263503 -0.0021498177736 1.6522985631 -0.012466754519
          -0.0025075104658 1.6510514172 -0.013111177261 -0.0018463306292 1.650641915 -0.013009923897
          -0.0025242415062 1.6510317334 -0.013036299654 -0.0032069952897 1.6508082805 -0.01302221367
          -0.003882068534 1.6499665784 -0.012990454894 -0.0031679461077 1.6499045855 -0.013112846114
          -0.0035258097248 1.6507159655 -0.012453264549 -0.0035963149361 1.6515331065 -0.012224392999
          0.0012201559363 1.6560846535 -0.012800432124 -0.0012380530705 1.6529487364 -0.012024468643
          -0.0012434601561 1.6510280692 -0.013340364565 -0.00075048636534 1.6510871372 -0.012990485813
          -0.00014395830802 1.6496125078 -0.0124716458 -0.0051431178504 1.6493683407 -0.012468301802
          -0.0045166008563 1.6504136058 -0.0129736921 -0.0040321068899 1.6499367696 -0.013338969172
          -0.0040208145908 1.6513990808 -0.012011658954 -0.0064521261863 1.6540750026 -0.012822526682
          -0.0026970163977 1.6497033921 -0.013340488274 0.0057863062585 1.6535279344 -0.015187347096
          -0.00013796568974 1.6503579201 -0.013806183979 -0.00060814140046 1.6509358638 -0.012997600637
          -0.0031553811754 1.6511875996 -0.012295600585 -0.0016393503493 1.6509823709 -0.012199197429
          -0.0042762837983 1.6502661813 -0.012981739389 -0.004726560934 1.6492501544 -0.013819809111
          -0.010485770993 1.6518819987 -0.015220080676 -0.0019030600183 1.6474010838 -0.01340147776
          -0.0034401400842 1.6506331179 -0.010676981359 -0.0051676154221 1.6520624537 -0.010419867994
          -0.0046845913887 1.6518553721 -0.011265606131 -0.0046435103081 1.651051009 -0.010497696301
          -0.0045236122226 1.651497027 -0.01149898627 -0.0043286204049 1.6515000277 -0.01168246013
          -0.0042938520681 1.6503866327 -0.010556762513 -0.0042132814663 1.6506966825 -0.011261324477
          -0.0038097365676 1.6504502126 -0.010373410372 -0.0054831824862 1.6485618452 -0.010698359719
          -0.004453169484 1.6527784147 -0.011116545827 -0.0046042933132 1.6520432245 -0.011260998233
          -0.0045150757887 1.6518556093 -0.011342431276 -0.0042667327054 1.6511913679 -0.011214919702
          -0.0042542027416 1.6510401935 -0.011247882568 -0.0042227897987 1.6507824378 -0.011266549704
          -0.0042056891334 1.6505154807 -0.011241357533 -0.0039234497107 1.6507193619 -0.011326984544
          -0.0038457021398 1.6504124604 -0.011252030737 -0.0040322377855 1.6506496884 -0.011108881277
          -0.0041145236149 1.6518969256 -0.011467583556 -0.0049239012404 1.6520627311 -0.011031130832
          -0.0041280965676 1.6514878141 -0.011542100259 -0.0040755397226 1.651073852 -0.011540508099
          -0.0040018496016 1.6508981987 -0.0115914435 -0.0040219795156 1.6507261604 -0.011501331699
          -0.0038957782017 1.6503875625 -0.011522730686 -0.0038638008231 1.6503496732 -0.011511383751
          -0.0030918871435 1.6504294659 -0.011023169379 -0.0038668029589 1.6498591142 -0.011439935042
          -0.0036015761554 1.6519347456 -0.012114230887 -0.0039800252108 1.6517702074 -0.011657585304
          -0.0038132037904 1.6515287679 -0.011908781741 -0.0038080656835 1.6511828784 -0.011902094995
          -0.0037540749703 1.6508983701 -0.011914846733 -0.0037234459385 1.6506144297 -0.011915291156
          -0.0037129451415 1.6504730813 -0.011903495732 -0.0036885880936 1.6503632905 -0.011866883856
          -0.0035083520875 1.650164624 -0.011610241069 -0.0039138426632 1.6498659604 -0.012071347145
          -0.0033969297429 1.6521304878 -0.012290731849 -0.0036243614529 1.6519804398 -0.012105593206
          -0.0033988335119 1.6515485676 -0.012214840399 -0.0035490620515 1.651162487 -0.012300016454
          -0.00359716313 1.6508696701 -0.012330538392 -0.0035425082006 1.6506518917 -0.012305612363
          -0.0034824094489 1.6504794134 -0.012242448018 -0.0036629881823 1.6504002506 -0.012179205051
          -0.0034015679279 1.6503700231 -0.012063174187 -0.0036512675413 1.6500803646 -0.012223812934
          -0.0033055698796 1.6518544912 -0.012437229348 -0.0034706233711 1.6519731426 -0.012352635837
          -0.0031297301989 1.6516764803 -0.01261231371 -0.0031357947049 1.6512237448 -0.012624715293
          -0.00296574117 1.6508357678 -0.012681057402 -0.003641857728 1.6505879792 -0.012711559735
          -0.0034346711285 1.6505073661 -0.012601365455 -0.0034546183158 1.6505084774 -0.012580082873
          -0.0030985757358 1.6503621858 -0.012310466233 -0.0032877838849 1.649780874 -0.012376417458
          -0.0022724779256 1.6526096804 -0.013387461842 -0.0026482356985 1.6520655238 -0.012856160406
          -0.0027554950717 1.6515860403 -0.012832018795 -0.0026234932055 1.6511759933 -0.012832010648
          -0.0030286646979 1.6507285501 -0.013198906484 -0.0031200350445 1.6504663871 -0.013185180706
          -0.0035442500143 1.6504876796 -0.01280596457 -0.0033995680754 1.6504105414 -0.012796770087
          -0.0034674219114 1.6504479364 -0.01282695508 -0.0038770778335 1.6505710731 -0.013334990023
          -0.0022166567173 1.6531053886 -0.01257724147 -0.0022067436636 1.6522665204 -0.012884855243
          -0.0021320286883 1.6514859827 -0.013407178025 -0.0029708135006 1.6512448354 -0.01318364661
          -0.0018943225297 1.6505916668 -0.012623514828 -0.0037889396204 1.6502694586 -0.012704076248
          -0.0027311983538 1.6505287748 -0.013187954327 -0.0036027661038 1.6503412941 -0.013406744872
          -0.00348457602 1.6506825718 -0.012849865958 -0.0034637046816 1.6510367154 -0.012502277386
          -0.0018647294102 1.6532017366 -0.012803826428 -0.0024401126016 1.6522289483 -0.013162339932
          -0.00051940040045 1.6518483745 -0.013535315663 -0.00044079217682 1.6500717735 -0.013989558993
          -0.0029183430045 1.6506944351 -0.014216139227 -0.0023911271778 1.650429778 -0.01417932136
          -0.0048249796022 1.6493925121 -0.013966327809 -0.0047166684866 1.6507221099 -0.013520087494
          -0.0028685291561 1.6506400974 -0.013185333916 -0.0034160909646 1.6511725122 -0.012763227327
          0.0016108230438 1.6567785368 -0.015248299627 0.001775711702 1.656144929 -0.01199287506
          -0.0028111993184 1.6530143077 -0.01160908387 -0.0030833590293 1.652856763 -0.0129753833
          0.00023441552169 1.6498704225 -0.014667659179 -0.0051104814302 1.649548525 -0.014655926883
          -0.0016709103224 1.652193225 -0.012958895522 -0.001979670381 1.6519253768 -0.01160162463
          -0.0065541019379 1.6545796352 -0.012047953747 -0.0062118346673 1.6545913566 -0.01517456117
          -0.0046866865092 1.6521063452 -0.010993599729 -0.004367557948 1.6521927833 -0.011026946837
          -0.0042756299377 1.6516275438 -0.010849358405 -0.0042335323359 1.6511009149 -0.010670657559
          -0.0044763727647 1.6514109044 -0.011105093246 -0.0043942685243 1.651115594 -0.011097923471
          -0.0047144215145 1.6503897948 -0.01064054898 -0.0046621997344 1.6504780703 -0.010875828083
          -0.0046062050497 1.650570489 -0.010986788261 -0.0041605871384 1.6500922659 -0.010978021441
          -0.0043502636326 1.6526910924 -0.011194529369 -0.0041167773421 1.651810338 -0.011125032771
          -0.0042322742671 1.6517918841 -0.011238556379 -0.0043286960134 1.6517372135 -0.011346959426
          -0.0042506609877 1.6513842175 -0.011289244004 -0.0042265897787 1.6511033289 -0.011231634023
          -0.0041346435392 1.6510638474 -0.011340626717 -0.004262754001 1.6506172793 -0.011235191044
          -0.0043631760052 1.6501532863 -0.011097772253 -0.0041473522371 1.6505819965 -0.011122468533
          -0.0042974634251 1.6523835984 -0.011131189334 -0.0040173376238 1.6521309878 -0.011500687718
          -0.004064906159 1.6518854976 -0.011675615236 -0.0040305675434 1.651590316 -0.011560577751
          -0.0039711470493 1.6513319847 -0.011581926276 -0.0039917529678 1.6511076094 -0.011545462563
          -0.0039299652589 1.6508851989 -0.011579796615 -0.003933222462 1.6507185207 -0.01164713901
          -0.0039910232936 1.6505048107 -0.011483495323 -0.0037210920175 1.6502748647 -0.011096699529
          -0.0036495612871 1.6524458781 -0.012061463231 -0.0037212142807 1.6522774978 -0.011899392631
          -0.0037791631483 1.651950066 -0.011918388381 -0.0037262643533 1.6515714478 -0.011900081096
          -0.0037912388262 1.6512469114 -0.011986664966 -0.0037142885326 1.6509708477 -0.011943656828
          -0.0036892421195 1.6508909988 -0.011936869107 -0.0037449383792 1.6507852164 -0.011882670593
          -0.0037807230596 1.6506555308 -0.011867750164 -0.0038672478354 1.6503826761 -0.012019114145
          -0.0035224533511 1.6526567393 -0.01233962421 -0.0034115687295 1.652291103 -0.012216808211
          -0.0034870289677 1.6519039294 -0.012240979951 -0.0034951791298 1.6516057229 -0.012240819481
          -0.0035020446275 1.6512370893 -0.012312377537 -0.0035491095325 1.6510781986 -0.012326298939
          -0.0035319125355 1.6509211675 -0.012218035791 -0.003591938637 1.6507188601 -0.012217463605
          -0.0036388944469 1.6506791489 -0.01218853859 -0.0035430517578 1.6505750559 -0.012288223526