<?xml version="1.0"?>
<VTKFile type="UnstructuredGrid" version="0.1" byte_order="LittleEndian" compressor="vtkZLibDataCompressor">
  <UnstructuredGrid>
    <FieldData>
      <DataArray type="Float64" Name="TIME" NumberOfTuples="1" format="ascii" RangeMin="0.29917710888" RangeMax="0.29917710888">
        0.29917710888
      </DataArray>
    </FieldData>
    <Piece NumberOfPoints="1000" NumberOfCells="0">
      <PointData>
        <DataArray type="Float64" Name="Damage" format="ascii" RangeMin="0" RangeMax="0.49719101124">
          0 0 0 0 0 0
          0 0 0 0 0 0.027932960894
          0 0 0 0 0 0
          0.027932960894 0 0 0.055084745763 0.071428571429 0.040345821326
          0.014164305949 0.012987012987 0.040345821326 0.071428571429 0.055084745763 0
          0 0.067669172932 0.11239193084 0.1074168798 0.037688442211 0.034562211982
          0.1074168798 0.11239193084 0.067669172932 0 0 0.074349442379
          0.16147308782 0.16834170854 0.12376237624 0.11286681716 0.16834170854 0.16147308782
          0.074349442379 0 0 0.084459459459 0.2 0.25806451613
          0.33860045147 0.39211618257 0.25806451613 0.2 0.084459459459 0
          0 0.093984962406 0.25360230548 0.36061381074 0.41959798995 0.46774193548
          0.36061381074 0.25360230548 0.093984962406 0 0 0.10593220339
          0.31493506494 0.40057636888 0.4447592068 0.49090909091 0.40057636888 0.31493506494
          0.10593220339 0 0 0.16759776536 0.3686440678 0.43984962406
          0.44609665428 0.49662162162 0.43984962406 0.3686440678 0.16759776536 0
          0 0.1677852349 0.36734693878 0.43891402715 0.44642857143 0.49593495935
          0.43891402715 0.36734693878 0.1677852349 0 0 0
          0 0 0 0 0 0
          0 0 0 0.027906976744 0 0
          0 0 0 0 0.027906976744 0
          0 0.056338028169 0.072776280323 0.040669856459 0.014117647059 0.012931034483
          0.040669856459 0.072776280323 0.056338028169 0 0 0.06875
          0.11483253589 0.10828025478 0.0375782881 0.034416826004 0.10828025478 0.11483253589
          0.06875 0 0 0.074303405573 0.16235294118 0.16910229645
          0.12371134021 0.11257035647 0.16910229645 0.16235294118 0.074303405573 0
          0 0.084269662921 0.20043103448 0.25812619503 0.33771106942 0.39242685026
          0.25812619503 0.20043103448 0.084269662921 0 0 0.09375
          0.25358851675 0.36093418259 0.41962421712 0.46845124283 0.36093418259 0.25358851675
          0.09375 0 0 0.10563380282 0.3153638814 0.4019138756
          0.44470588235 0.49137931034 0.4019138756 0.3153638814 0.10563380282 0
          0 0.16744186047 0.36971830986 0.440625 0.44582043344 0.49719101124
          0.440625 0.36971830986 0.16744186047 0 0 0.16759776536
          0.3686440678 0.43984962406 0.44609665428 0.49662162162 0.43984962406 0.3686440678
          0.16759776536 0 0 0 0 0
          0 0 0 0 0 0
          0 0.024647887324 0 0 0 0
          0 0 0.024647887324 0 0 0.051212938005
          0.06875 0.038817005545 0.012635379061 0.011666666667 0.038817005545 0.06875
          0.051212938005 0 0 0.064593301435 0.10905730129 0.10491803279
          0.036858974359 0.034023668639 0.10491803279 0.10905730129 0.064593301435 0
          0 0.070588235294 0.15523465704 0.16506410256 0.12283464567 0.11271676301
          0.16506410256 0.15523465704 0.070588235294 0 0 0.081896551724
          0.19333333333 0.25443786982 0.33959537572 0.38985313752 0.25443786982 0.19333333333
          0.081896551724 0 0 0.093301435407 0.24768946396 0.35573770492
          0.41987179487 0.46449704142 0.35573770492 0.24768946396 0.093301435407 0
          0 0.10781671159 0.30833333333 0.39556377079 0.4440433213 0.48666666667
          0.39556377079 0.30833333333 0.10781671159 0 0 0.16197183099
          0.35579514825 0.43062200957 0.44470588235 0.49137931034 0.43062200957 0.35579514825
          0.16197183099 0 0 0.16101694915 0.3538961039 0.42939481268
          0.4447592068 0.49090909091 0.42939481268 0.3538961039 0.16101694915 0
          0 0 0 0 0 0
          0 0 0 0 0 0.025
          0 0 0 0 0 0
          0.025 0 0 0.05023923445 0.068391866913 0.039344262295
          0.012820512821 0.011834319527 0.039344262295 0.068391866913 0.05023923445 0
          0 0.063694267516 0.10819672131 0.10465116279 0.036984352774 0.034120734908
          0.10465116279 0.10819672131 0.063694267516 0 0 0.070981210856
          0.15544871795 0.16500711238 0.12290502793 0.11282051282 0.16500711238 0.15544871795
          0.070981210856 0 0 0.082217973231 0.19378698225 0.25459317585
          0.33974358974 0.38981042654 0.25459317585 0.19378698225 0.082217973231 0
          0 0.093418259023 0.24918032787 0.35610465116 0.41963015647 0.46456692913
          0.35610465116 0.24918032787 0.093418259023 0 0 0.10765550239
          0.30868761553 0.39508196721 0.44391025641 0.48668639053 0.39508196721 0.30868761553
          0.10765550239 0 0 0.1625 0.35645933014 0.43099787686
          0.44467640919 0.4913957935 0.43099787686 0.35645933014 0.1625 0
          0 0.16165413534 0.35446685879 0.42966751918 0.44472361809 0.49078341014
          0.42966751918 0.35446685879 0.16165413534 0 0 0
          0 0 0 0 0 0
          0 0 0 0.02786377709 0 0
          0 0 0 0 0.02786377709 0
          0 0.054117647059 0.070397111913 0.040064102564 0.014173228346 0.013005780347
          0.040064102564 0.070397111913 0.054117647059 0 0 0.066805845511
          0.11057692308 0.106685633 0.037709497207 0.034615384615 0.106685633 0.11057692308
          0.066805845511 0 0 0.074226804124 0.16062992126 0.16759776536
          0.12362637363 0.11292346299 0.16759776536 0.16062992126 0.074226804124 0
          0 0.084427767355 0.19942196532 0.25769230769 0.33877038896 0.39145496536
          0.25769230769 0.19942196532 0.084427767355 0 0 0.093945720251
          0.25320512821 0.35988620199 0.41899441341 0.46666666667 0.35988620199 0.25320512821
          0.093945720251 0 0 0.10588235294 0.31407942238 0.39903846154
          0.44409448819 0.48988439306 0.39903846154 0.31407942238 0.10588235294 0
          0 0.16718266254 0.36705882353 0.43841336117 0.44536082474 0.49530956848
          0.43841336117 0.36705882353 0.16718266254 0 0 0.16728624535
          0.36543909348 0.43718592965 0.44554455446 0.49435665914 0.43718592965 0.36543909348
          0.16728624535 0 0 0 0 0
          0 0 0 0 0 0
          0 0.025280898876 0 0 0 0
          0 0 0.025280898876 0 0 0.049568965517
          0.066666666667 0.038461538462 0.013005780347 0.012016021362 0.038461538462 0.066666666667
          0.049568965517 0 0 0.06309751434 0.1050295858 0.10367454068
          0.037179487179 0.034360189573 0.10367454068 0.1050295858 0.06309751434 0
          0 0.071294559099 0.15462427746 0.1641025641 0.12296110414 0.11316397229
          0.1641025641 0.15462427746 0.071294559099 0 0 0.082616179002
          0.19359145527 0.25473933649 0.34064665127 0.38930481283 0.25473933649 0.19359145527
          0.082616179002 0 0 0.093690248566 0.24852071006 0.35564304462
          0.41923076923 0.46327014218 0.35564304462 0.24852071006 0.093690248566 0
          0 0.10775862069 0.30833333333 0.39349112426 0.4436416185 0.48598130841
          0.39349112426 0.30833333333 0.10775862069 0 0 0.16292134831
          0.35560344828 0.43021032505 0.44465290807 0.49053356282 0.43021032505 0.35560344828
          0.16292134831 0 0 0.16216216216 0.35324675325 0.42857142857
          0.44469525959 0.48962655602 0.42857142857 0.35324675325 0.16216216216 0
          0 0 0 0 0 0
          0 0 0 0 0 0.025
          0 0 0 0 0 0
          0.025 0 0 0.05023923445 0.068391866913 0.039344262295
          0.012820512821 0.011834319527 0.039344262295 0.068391866913 0.05023923445 0
          0 0.063694267516 0.10819672131 0.10465116279 0.036984352774 0.034120734908
          0.10465116279 0.10819672131 0.063694267516 0 0 0.070981210856
          0.15544871795 0.16500711238 0.12290502793 0.11282051282 0.16500711238 0.15544871795
          0.070981210856 0 0 0.082217973231 0.19378698225 0.25459317585
          0.33974358974 0.38981042654 0.25459317585 0.19378698225 0.082217973231 0
          0 0.093418259023 0.24918032787 0.35610465116 0.41963015647 0.46456692913
          0.35610465116 0.24918032787 0.093418259023 0 0 0.10765550239
          0.30868761553 0.39508196721 0.44391025641 0.48668639053 0.39508196721 0.30868761553
          0.10765550239 0 0 0.1625 0.35645933014 0.43099787686
          0.44467640919 0.4913957935 0.43099787686 0.35645933014 0.1625 0
          0 0.16165413534 0.35446685879 0.42966751918 0.44472361809 0.49078341014
          0.42966751918 0.35446685879 0.16165413534 0 0 0
          0 0 0 0 0 0
          0 0 0 0.024647887324 0 0
          0 0 0 0 0.024647887324 0
          0 0.051212938005 0.06875 0.038817005545 0.012635379061 0.011666666667
          0.038817005545 0.06875 0.051212938005 0 0 0.064593301435
          0.10905730129 0.10491803279 0.036858974359 0.034023668639 0.10491803279 0.10905730129
          0.064593301435 0 0 0.070588235294 0.15523465704 0.16506410256
          0.12283464567 0.11271676301 0.16506410256 0.15523465704 0.070588235294 0
          0 0.081896551724 0.19333333333 0.25443786982 0.33959537572 0.38985313752
          0.25443786982 0.19333333333 0.081896551724 0 0 0.093301435407
          0.24768946396 0.35573770492 0.41987179487 0.46449704142 0.35573770492 0.24768946396
          0.093301435407 0 0 0.10781671159 0.30833333333 0.39556377079
          0.4440433213 0.48666666667 0.39556377079 0.30833333333 0.10781671159 0
          0 0.16197183099 0.35579514825 0.43062200957 0.44470588235 0.49137931034
          0.43062200957 0.35579514825 0.16197183099 0 0 0.16101694915
          0.3538961039 0.42939481268 0.4447592068 0.49090909091 0.42939481268 0.3538961039
          0.16101694915 0 0 0 0 0
          0 0 0 0 0 0
          0 0.027906976744 0 0 0 0
          0 0 0.027906976744 0 0 0.056338028169
          0.072776280323 0.040669856459 0.014117647059 0.012931034483 0.040669856459 0.072776280323
          0.056338028169 0 0 0.06875 0.11483253589 0.10828025478
          0.0375782881 0.034416826004 0.10828025478 0.11483253589 0.06875 0
          0 0.074303405573 0.16235294118 0.16910229645 0.12371134021 0.11257035647
          0.16910229645 0.16235294118 0.074303405573 0 0 0.084269662921
          0.20043103448 0.25812619503 0.33771106942 0.39242685026 0.25812619503 0.20043103448
          0.084269662921 0 0 0.09375 0.25358851675 0.36093418259
          0.41962421712 0.46845124283 0.36093418259 0.25358851675 0.09375 0
          0 0.10563380282 0.3153638814 0.4019138756 0.44470588235 0.49137931034
          0.4019138756 0.3153638814 0.10563380282 0 0 0.16744186047
          0.36971830986 0.440625 0.44582043344 0.49719101124 0.440625 0.36971830986
          0.16744186047 0 0 0.16759776536 0.3686440678 0.43984962406
          0.44609665428 0.49662162162 0.43984962406 0.3686440678 0.16759776536 0
          0 0 0 0 0 0
          0 0 0 0 0 0.027932960894
          0 0 0 0 0 0
          0.027932960894 0 0 0.055084745763 0.071428571429 0.040345821326
          0.014164305949 0.012987012987 0.040345821326 0.071428571429 0.055084745763 0
          0 0.067669172932 0.11239193084 0.1074168798 0.037688442211 0.034562211982
          0.1074168798 0.11239193084 0.067669172932 0 0 0.074349442379
          0.16147308782 0.16834170854 0.12376237624 0.11286681716 0.16834170854 0.16147308782
          0.074349442379 0 0 0.084459459459 0.2 0.25806451613
          0.33860045147 0.39211618257 0.25806451613 0.2 0.084459459459 0
          0 0.093984962406 0.25360230548 0.36061381074 0.41959798995 0.46774193548
          0.36061381074 0.25360230548 0.093984962406 0 0 0.10593220339
          0.31493506494 0.40057636888 0.4447592068 0.49090909091 0.40057636888 0.31493506494
          0.10593220339 0 0 0.16759776536 0.3686440678 0.43984962406
          0.44609665428 0.49662162162 0.43984962406 0.3686440678 0.16759776536 0
          0 0.1677852349 0.36734693878 0.43891402715 0.44642857143 0.49593495935
          0.43891402715 0.36734693878 0.1677852349 0
        </DataArray>
        <DataArray type="Float64" Name="Displacement" NumberOfComponents="3" format="ascii" RangeMin="1.1206898362" RangeMax="1.1462526824">
          -0.013509029875 1.1400701993 -0.026901138952 -0.010267360986 1.1355934816 -0.027556985505
          -0.009725905142 1.1344667896 -0.027101043483 -0.010540571764 1.1334257099 -0.026594916767
          -0.01027268382 1.1321447425 -0.026021622139 -0.010251023457 1.1309951269 -0.02524570676
          -0.0099736299287 1.1318436728 -0.026505603622 -0.010779700563 1.1318795277 -0.026972929822
          -0.010138656794 1.1318591158 -0.027577511716 -0.0066276363518 1.1354276854 -0.026858322402
          -0.0088727139681 1.1345223756 -0.026436697867 -0.0088603669796 1.1324990447 -0.025669269686
          -0.0099421257436 1.1334735343 -0.026536846254 -0.010130304829 1.1328216914 -0.026591524221
          -0.0096572853757 1.1320002936 -0.026610067897 -0.0098333307972 1.1317400733 -0.026571909519
          -0.0094408835524 1.1314934485 -0.026694051423 -0.0095604038475 1.1308221517 -0.026381623528
          -0.010686712526 1.128972383 -0.025568647619 -0.010482853845 1.1299678665 -0.026411219156
          -0.0086255167816 1.1332482571 -0.026350408771 -0.008742095768 1.1337205749 -0.026923262489
          -0.0088350891118 1.1326010514 -0.026878657198 -0.0092846559438 1.1325057721 -0.027169418913
          -0.0092148646001 1.1325607131 -0.027816469249 -0.0091643563999 1.1315645471 -0.027033436296
          -0.0090391344949 1.1309577964 -0.027163143914 -0.0096636529096 1.1299811479 -0.02684997202
          -0.0096491476473 1.1301318993 -0.026808768232 -0.0097921285476 1.1286635215 -0.026163608375
          -0.0097580991228 1.1348106046 -0.02693151505 -0.0090224553486 1.1334140268 -0.026993383563
          -0.0090297447088 1.1332776763 -0.027845974301 -0.0088930284884 1.1320175228 -0.027757398885
          -0.0085742520402 1.1317197368 -0.028035630947 -0.0084126756462 1.1313676972 -0.028189995457
          -0.0088254500266 1.1306117388 -0.027960747445 -0.0083617377006 1.1307080554 -0.027808741106
          -0.0085132848097 1.1298182494 -0.026905642046 -0.0076913233871 1.1302326408 -0.026818184429
          -0.01030474724 1.1343810389 -0.026152754521 -0.0082900435311 1.1324791839 -0.02818406607
          -0.0080487075544 1.1331424772 -0.028343814536 -0.0082817153 1.13195638 -0.028687408972
          -0.0084597461084 1.1318441375 -0.028261973943 -0.0083954550551 1.1319233493 -0.027920308337
          -0.0080847551904 1.1303357312 -0.028765567157 -0.0083631914098 1.1306282838 -0.028267306849
          -0.0082412302568 1.1290274376 -0.028138893538 -0.0062313198039 1.1298440469 -0.026118200552
          -0.009948438589 1.1345856835 -0.02732870498 -0.0066400165607 1.1332211692 -0.029218649197
          -0.0068635751505 1.1330042372 -0.02908901866 -0.0073962681896 1.132390414 -0.029234437169
          -0.0059762403057 1.1310302741 -0.028276258585 -0.0094003363211 1.1308204317 -0.027992989637
          -0.0081538815636 1.1306987004 -0.029117180453 -0.0085705270128 1.1304997273 -0.029020769609
          -0.0089007293022 1.1296337249 -0.029128384544 -0.0055422623042 1.130020102 -0.027353731023
          -0.0082241089893 1.133317008 -0.029121301841 -0.0063140926239 1.1329036956 -0.030021805921
          -0.0071679471764 1.1322122402 -0.030503805035 -0.0071431994106 1.1318839743 -0.030397330039
          -0.0057459317476 1.1330733159 -0.029604495339 -0.0087516960487 1.1325210196 -0.029562732352
          -0.0072490264157 1.1303638984 -0.030334777351 -0.0072234756899 1.1296834485 -0.030408749116
          -0.0080961171266 1.1293927753 -0.029839067917 -0.0063552948919 1.1287596885 -0.029216254325
          -0.0083074380987 1.131837779 -0.028755242516 -0.0055214399946 1.1334822135 -0.031274663548
          -0.0055139155256 1.1325202475 -0.030829201565 -0.0042840655593 1.1323465833 -0.029963276425
          -0.005828655775 1.1302525235 -0.031266323748 -0.0076634668016 1.1297932249 -0.031195616985
          -0.0090123475542 1.1308523361 -0.029947810254 -0.0078684954967 1.1299974568 -0.030745202757
          -0.0077820718532 1.1299737563 -0.031095189428 -0.0052142923988 1.1272555668 -0.028735005542
          -0.0042169973028 1.1353358479 -0.033305002211 -0.011644623196 1.1338003932 -0.029253604677
          -0.0039863188895 1.1350155932 -0.029908828575 -0.0062316837777 1.1327137302 -0.032205038003
          -0.003321174636 1.1316161793 -0.029564133017 -0.0090418279036 1.1309948413 -0.029595794177
          -0.0061763239392 1.1310100737 -0.032058882078 -0.008557768003 1.1323699279 -0.029893815618
          -0.00085298398375 1.1301358926 -0.029237527402 -0.0083482434002 1.1308126617 -0.033409387382
          -0.010654302493 1.1249283609 -0.032293465872 -0.0058152391686 1.1352308194 -0.029652759258
          -0.0029319017073 1.1324426062 -0.030518420576 -0.0041513318627 1.1273701344 -0.03557851594
          0.0014443027811 1.1311709914 -0.025546036775 -0.013166310072 1.1303806386 -0.025629624267
          -0.0072389446294 1.1257248436 -0.03571935997 -0.0085124359529 1.1299761569 -0.030454752442
          -0.0055127655147 1.13182333 -0.029481244455 -0.00088935235381 1.1202206472 -0.03241326186
          -0.0084237102736 1.1346237534 -0.025704680115 -0.0093995101528 1.1352694091 -0.027313678135
          -0.009776117157 1.1339267264 -0.026263788182 -0.010229481871 1.1334116726 -0.025655835119
          -0.010295560308 1.1326347958 -0.025620765153 -0.010375104702 1.1322606923 -0.025641776915
          -0.01023032756 1.1320542816 -0.025779775411 -0.010816362548 1.1313313107 -0.026237883084
          -0.011163190011 1.1317510022 -0.027253283814 -0.012099803897 1.1301195717 -0.025637442604
          -0.0093694691961 1.1348107412 -0.025837668564 -0.0098567735813 1.1340836834 -0.026835856862
          -0.0091957880578 1.1332438869 -0.026611427357 -0.0096154672149 1.1329023385 -0.026177847871
          -0.0098528607701 1.132821612 -0.026580198471 -0.0097346822677 1.1318156466 -0.026016886727
          -0.0099317460622 1.1315207607 -0.026273579516 -0.010357933683 1.1307574594 -0.026580774936
          -0.0096526425574 1.1304973145 -0.026810370219 -0.010101732003 1.1300314279 -0.025485086732
          -0.010418017003 1.1346443552 -0.025394078884 -0.0093720795422 1.1338775939 -0.026513184204
          -0.0090695008309 1.1339828144 -0.027430711117 -0.0094156380966 1.1331667506 -0.027028125269
          -0.0093087061306 1.1325688837 -0.027207787877 -0.0092174780363 1.1320730934 -0.02720142466
          -0.0091256948336 1.1316465963 -0.027082775901 -0.0093990838121 1.1314340858 -0.027314365023
          -0.0091488925229 1.130314491 -0.026418878579 -0.0080206270064 1.1300174018 -0.025239025182
          -0.0091211637887 1.1349138884 -0.027509094979 -0.0089749183671 1.1342012311 -0.027562874465
          -0.0087866994069 1.1337210784 -0.027838438947 -0.0084909569405 1.1333408794 -0.028393439763
          -0.0087690614152 1.1323083364 -0.027758831284 -0.0087569227921 1.1317944026 -0.027764440956
          -0.0090687566303 1.1318816147 -0.028448800558 -0.0087188779565 1.1311537282 -0.02779785729
          -0.0084996501326 1.1306998766 -0.027423936725 -0.0083572091904 1.1304291574 -0.027353692425
          -0.0083894793296 1.1356181378 -0.028328344341 -0.0083650646249 1.1342084839 -0.02844259785
          -0.0085195388081 1.1334186996 -0.028523881028 -0.008384664502 1.1329093346 -0.028137542976
          -0.008075904481 1.132542601 -0.02825191623 -0.0083400781927 1.131968171 -0.028391995971
          -0.0081307069151 1.1314392028 -0.028114526434 -0.0079578059058 1.1308721841 -0.02848264521
          -0.0080139901923 1.130647796 -0.028380942961 -0.0080622876864 1.1310044349 -0.028174889004
          -0.0071810724125 1.1352231244 -0.029099385552 -0.0074329898072 1.1344122457 -0.028956738198
          -0.0076281763005 1.1335357935 -0.029119885503 -0.0076042135272 1.1328153222 -0.029358420968
          -0.0076061690035 1.1320442352 -0.029289810896 -0.0077944215877 1.1316281179 -0.02921706542
          -0.0078309146406 1.1312565908 -0.029358317989 -0.0078550093982 1.1309710352 -0.02909974159
          -0.0079503013987 1.1308576786 -0.028866626904 -0.0082625886742 1.1307064696 -0.028958770638
          -0.0064650815968 1.1350720029 -0.030297764218 -0.0072775441739 1.1342018195 -0.029776406355
          -0.0064714044606 1.133414416 -0.030448278886 -0.0059439346279 1.1326336643 -0.029874910377
          -0.0071049574458 1.1319042078 -0.030437329628 -0.0073459545223 1.1313886888 -0.030456585838
          -0.0084539546816 1.1311127554 -0.029840794598 -0.007918966247 1.1308630161 -0.0303749007
          -0.0071296667939 1.130649576 -0.029677047904 -0.0080008772273 1.1305050789 -0.030218062913
          -0.003704903245 1.1358693222 -0.033166920235 -0.0056732814226 1.1346233883 -0.03017501241
          -0.0056710042817 1.1331848264 -0.031086659485 -0.0057275026469 1.1321964737 -0.030833227476
          -0.0044197233183 1.1319391059 -0.02919092678 -0.0090588757007 1.1314243262 -0.029130240616
          -0.0077231962867 1.1306419118 -0.030799865474 -0.0078401912042 1.1306589052 -0.031065877318
          -0.0076982867937 1.1311040207 -0.030018912881 -0.0097325978999 1.1312934308 -0.033080778392
          -0.0034579392357 1.1364696652 -0.031000824487 -0.0042529971312 1.1348885547 -0.030988833631
          -0.0050468325267 1.1327961065 -0.031579633391 -0.0044060538073 1.131538164 -0.031700256236
          -0.0036860109812 1.1313109788 -0.030438652707 -0.0086865753168 1.1308745767 -0.03044256892
          -0.0080091783537 1.1300519149 -0.031649075559 -0.0074186652161 1.1302859606 -0.031496324922
          -0.0081942838583 1.1314041984 -0.030932909859 -0.0090409242167 1.132014421 -0.0310282532
          -0.0023446050287 1.134437977 -0.032736039816 -0.0016352155735 1.134842102 -0.031690656622
          -0.0035647735091 1.1315838423 -0.034273757577 -0.0051237420741 1.1311407892 -0.033574970503
          -0.0069122453382 1.1312016611 -0.035117242364 -0.0043304007638 1.1305077059 -0.035338071705
          -0.0062227230936 1.1297272241 -0.033529293025 -0.0079834363733 1.1291230686 -0.034175674147
          -0.0098362824345 1.1313279581 -0.031878045722 -0.0089088617162 1.1297891663 -0.032767031908
          -0.010273862387 1.1354922637 -0.025214049451 -0.0090630908923 1.1339850149 -0.02562385828
          -0.0098944195586 1.1338669054 -0.02589290892 -0.010688694719 1.1345593733 -0.026426726919
          -0.010209968063 1.1328677377 -0.025279401036 -0.010404476948 1.1326074105 -0.025465374359
          -0.0099152672988 1.132982241 -0.026311928794 -0.010709729769 1.1313063573 -0.025760950395
          -0.011542450253 1.1302801063 -0.025617138758 -0.010349819285 1.1308830012 -0.025064294902
          -0.0085390799375 1.1333477973 -0.026021050646 -0.0089283237616 1.1344860397 -0.026919485089
          -0.0099109127417 1.1343518088 -0.026291345056 -0.0097405219435 1.1337516998 -0.026380189783
          -0.009762314668 1.1331234043 -0.026308449627 -0.0097827796656 1.1327105259 -0.026371400523
          -0.0097717829939 1.1321643751 -0.026306346941 -0.0096234782717 1.1318218541 -0.026249754378
          -0.010684883741 1.1308956614 -0.026872490245 -0.011108831653 1.1286783046 -0.025894287873
          -0.0088572728371 1.1347574235 -0.02670781161 -0.0086050134201 1.1344992167 -0.027158901312
          -0.0093597838656 1.1343376678 -0.027095646002 -0.0093402645156 1.1337382587 -0.027072058109
          -0.009308580788 1.1329800887 -0.027021438039 -0.0092576969223 1.1325987992 -0.026961323803
          -0.0091562990018 1.1321821008 -0.027068776886 -0.0091826655314 1.1318187668 -0.027105012412
          -0.0098804521902 1.1309116067 -0.027096437066 -0.0097310865125 1.1301805518 -0.026636583478
          -0.0090248546076 1.1358117142 -0.027364674532 -0.0091914916525 1.1348987409 -0.027504175397
          -0.0088204135215 1.1343075157 -0.027780739594 -0.0087918610618 1.133623809 -0.027699387784
          -0.0087359644614 1.1329336365 -0.027770121665 -0.0086834252556 1.1324238582 -0.027671631904
          -0.0087370385302 1.132098818 -0.027665638683 -0.0086819022155 1.1317795789 -0.027770401927
          -0.0083058281462 1.1313252943 -0.027460300906 -0.0084623807823 1.1311836273 -0.027263765909
          -0.0084804509766 1.135720786 -0.028002155015 -0.0085650742984 1.1349568778 -0.028264256689
          -0.0084627319231 1.134213499 -0.028409828508 -0.0082784681052 1.1335420459 -0.028457447418
          -0.0082146407899 1.1329915344 -0.028432936073 -0.0082111291498 1.1324785343 -0.02846760553
          -0.0081665723273 1.1320311162 -0.028428834549 -0.0080466426156 1.1316476567 -0.02835889944
          -0.0079295511399 1.1313916809 -0.028232156033 -0.0079757701028 1.1311221659 -0.027920141971
          -0.0077047506388 1.1360930452 -0.02876933791 -0.0073106817826 1.1349850993 -0.029236351594
          -0.0074428699457 1.1343141597 -0.029193590636 -0.0075795552823 1.1334440687 -0.02910650456
          -0.007641795617 1.1328717792 -0.02928081133 -0.0078007165522 1.1323785679 -0.029259806952
          -0.0078014780492 1.131839839 -0.029078798149 -0.0080715976366 1.1317397563 -0.029127847507
          -0.0081347776947 1.1314268539 -0.029182042164 -0.0076871681818 1.1314929802 -0.028641562354
          -0.0066395702586 1.1356992808 -0.02978544638 -0.0064298284119 1.1350891359 -0.02990857556
          -0.0071650977982 1.1340896148 -0.029874129355 -0.0069677103693 1.1333390377 -0.030170736147
          -0.0061485000709 1.1326760486 -0.029648842216 -0.0082700970302 1.1321829766 -0.029638459313
          -0.0074896828937 1.1318451513 -0.030054760925 -0.0073143620434 1.1315527736 -0.029811497951
          -0.008020040558 1.131549893 -0.029837992962 -0.0077605774555 1.1311454287 -0.02962321268
          -0.0058387674404 1.1357882191 -0.030650824184 -0.0054405854313 1.1352823702 -0.03054849829
          -0.0058442314662 1.1340668393 -0.030776371232 -0.0067726360636 1.133545605 -0.030548379149
          -0.0060931871956 1.1329071616 -0.03016657428 -0.0073267338502 1.1322764773 -0.030343864574
          -0.0066850662685 1.1319972738 -0.030539918473 -0.0076380775879 1.1315177484 -0.030735792976
          -0.0079329896327 1.1317107336 -0.030477612152 -0.0075520358294 1.1312378907 -0.030529854124
          -0.0066272305922 1.1343047283 -0.031160706802 -0.0050100126796 1.1342561784 -0.031836767676
          -0.0044160085234 1.1340607004 -0.031601890992 -0.0042426590819 1.1326007318 -0.031688291598
          -0.005061983372 1.1318149998 -0.031977395386 -0.0073728865637 1.1312541989 -0.032015723804
          -0.0081787813323 1.1311066263 -0.0316220999 -0.0079643940015 1.1315093028 -0.03154870509
          -0.007448540962 1.1307124215 -0.031768323196 -0.0057404715486 1.1296380962 -0.031091359406
          -0.0057670252286 1.1322860604 -0.033555257005 -0.0072311162517 1.1333965588 -0.031887609818
          -0.0053828285205 1.1337890211 -0.031252499361 -0.00049934659975 1.1314150718 -0.032796034981
          -0.0081468882475 1.1342373041 -0.032331012591 -0.0030799425075 1.1337542058 -0.032326803015
          -0.010833347614 1.1299338507 -0.032727052585 -0.00597254232 1.1312366901 -0.031259868594
          -0.0042428854103 1.1298343429 -0.03183873533 -0.0057262606788 1.1277864084 -0.033510124398
          -0.010946949615 1.1372322572 -0.026162481935 -0.010049858301 1.1355588125 -0.025385225954
          -0.0098373548156 1.1348865662 -0.026061805407 -0.010067639927 1.1342979082 -0.025450439883
          -0.010204850093 1.1338982475 -0.025326887637 -0.01047376844 1.1333079274 -0.025485615754
          -0.010628463954 1.1326287966 -0.025375154732 -0.010743260216 1.1323178224 -0.026013672196
          -0.010573541178 1.1318870725 -0.025295222072 -0.0095924735429 1.1326740553 -0.026039028386
          -0.0097265474227 1.135753492 -0.025746688854 -0.0095303823336 1.1351657159 -0.026074753279
          -0.0098388601501 1.1350326511 -0.026357807291 -0.009756280371 1.1343633843 -0.026308467753
          -0.009784978187 1.1338565135 -0.026300939776 -0.0097587812737 1.1334158015 -0.026301904086
          -0.0097698904599 1.1328195508 -0.026292336885 -0.009743638097 1.1324506746 -0.026262585391
          -0.010042985693 1.1316226107 -0.025984311774 -0.0099026605809 1.13115284 -0.025609749785
          -0.0093740522132 1.1365304529 -0.026965080411 -0.0093781775236 1.1357596038 -0.027171577776
          -0.0093484758948 1.1350583464 -0.027038345979 -0.0093692085972 1.1344162431 -0.026992707937
          -0.0092830717358 1.1337381053 -0.027003207579 -0.0092225776703 1.1332819539 -0.026978754452
          -0.0091584028717 1.1328777256 -0.026966646293 -0.0092038512804 1.1325340085 -0.026980261487
          -0.0091431557306 1.1321655679 -0.027089467509 -0.0091019804282 1.1319941622 -0.026888658911
          -0.0088312435076 1.1362145712 -0.027480972418 -0.0091022404744 1.1357404334 -0.027673107947
          -0.0088450516812 1.134976947 -0.027733297637 -0.0087559450112 1.1341920091 -0.02786522229
          -0.0088243211152 1.1336027548 -0.027720777457 -0.0087263240661 1.1331867938 -0.027772440883
          -0.0087761220591 1.1326978475 -0.027814265018 -0.0086749978643 1.1324331198 -0.02768013795
          -0.0084147099927 1.1321431861 -0.027641980964 -0.0087114013551 1.1316345171 -0.027390802129
          -0.0081478119844 1.1366504482 -0.028293805798 -0.0080578607934 1.1357191936 -0.028492782985
          -0.0082499100569 1.1349820935 -0.028355697344 -0.0082629302978 1.1343133269 -0.028323679089
          -0.0081986382636 1.1336233876 -0.028484175396 -0.0082453629858 1.1331180127 -0.028395777355
          -0.0082037508604 1.1327816596 -0.028337851279 -0.008239622772 1.1324304627 -0.028333067237
          -0.0084365209017 1.1321631013 -0.028465079083 -0.0083438082751 1.1320305566 -0.028187537809