<?xml version="1.0"?>
<VTKFile type="UnstructuredGrid" version="0.1" byte_order="LittleEndian" compressor="vtkZLibDataCompressor">
  <UnstructuredGrid>
    <FieldData>
      <DataArray type="Float64" Name="TIME" NumberOfTuples="1" format="ascii" RangeMin="0.20305059489" RangeMax="0.20305059489">
        0.20305059489
      </DataArray>
    </FieldData>
    <Piece NumberOfPoints="1000" NumberOfCells="0">
      <PointData>
        <DataArray type="Float64" Name="Damage" format="ascii" RangeMin="0" RangeMax="0.49719101124">
          0 0 0 0 0 0
          0 0 0 0 0 0.027932960894
          0 0 0 0 0 0
          0.027932960894 0 0 0.055084745763 0.071428571429 0.040345821326
          0.014164305949 0.012987012987 0.040345821326 0.071428571429 0.055084745763 0
          0 0.067669172932 0.11239193084 0.1074168798 0.037688442211 0.034562211982
          0.1074168798 0.11239193084 0.067669172932 0 0 0.074349442379
          0.16147308782 0.16834170854 0.12376237624 0.11286681716 0.16834170854 0.16147308782
          0.074349442379 0 0 0.084459459459 0.2 0.25806451613
          0.33860045147 0.39211618257 0.25806451613 0.2 0.084459459459 0
          0 0.093984962406 0.25360230548 0.36061381074 0.41959798995 0.46774193548
          0.36061381074 0.25360230548 0.093984962406 0 0 0.10593220339
          0.31493506494 0.40057636888 0.4447592068 0.49090909091 0.40057636888 0.31493506494
          0.10593220339 0 0 0.16759776536 0.3686440678 0.43984962406
          0.44609665428 0.49662162162 0.43984962406 0.3686440678 0.16759776536 0
          0 0.1677852349 0.36734693878 0.43891402715 0.44642857143 0.49593495935
          0.43891402715 0.36734693878 0.1677852349 0 0 0
          0 0 0 0 0 0
          0 0 0 0.027906976744 0 0
          0 0 0 0 0.027906976744 0
          0 0.056338028169 0.072776280323 0.040669856459 0.014117647059 0.012931034483
          0.040669856459 0.072776280323 0.056338028169 0 0 0.06875
          0.11483253589 0.10828025478 0.0375782881 0.034416826004 0.10828025478 0.11483253589
          0.06875 0 0 0.074303405573 0.16235294118 0.16910229645
          0.12371134021 0.11257035647 0.16910229645 0.16235294118 0.074303405573 0
          0 0.084269662921 0.20043103448 0.25812619503 0.33771106942 0.39242685026
          0.25812619503 0.20043103448 0.084269662921 0 0 0.09375
          0.25358851675 0.36093418259 0.41962421712 0.46845124283 0.36093418259 0.25358851675
          0.09375 0 0 0.10563380282 0.3153638814 0.4019138756
          0.44470588235 0.49137931034 0.4019138756 0.3153638814 0.10563380282 0
          0 0.16744186047 0.36971830986 0.440625 0.44582043344 0.49719101124
          0.440625 0.36971830986 0.16744186047 0 0 0.16759776536
          0.3686440678 0.43984962406 0.44609665428 0.49662162162 0.43984962406 0.3686440678
          0.16759776536 0 0 0 0 0
          0 0 0 0 0 0
          0 0.024647887324 0 0 0 0
          0 0 0.024647887324 0 0 0.051212938005
          0.06875 0.038817005545 0.012635379061 0.011666666667 0.038817005545 0.06875
          0.051212938005 0 0 0.064593301435 0.10905730129 0.10491803279
          0.036858974359 0.034023668639 0.10491803279 0.10905730129 0.064593301435 0
          0 0.070588235294 0.15523465704 0.16506410256 0.12283464567 0.11271676301
          0.16506410256 0.15523465704 0.070588235294 0 0 0.081896551724
          0.19333333333 0.25443786982 0.33959537572 0.38985313752 0.25443786982 0.19333333333
          0.081896551724 0 0 0.093301435407 0.24768946396 0.35573770492
          0.41987179487 0.46449704142 0.35573770492 0.24768946396 0.093301435407 0
          0 0.10781671159 0.30833333333 0.39556377079 0.4440433213 0.48666666667
          0.39556377079 0.30833333333 0.10781671159 0 0 0.16197183099
          0.35579514825 0.43062200957 0.44470588235 0.49137931034 0.43062200957 0.35579514825
          0.16197183099 0 0 0.16101694915 0.3538961039 0.42939481268
          0.4447592068 0.49090909091 0.42939481268 0.3538961039 0.16101694915 0
          0 0 0 0 0 0
          0 0 0 0 0 0.025
          0 0 0 0 0 0
          0.025 0 0 0.05023923445 0.068391866913 0.039344262295
          0.012820512821 0.011834319527 0.039344262295 0.068391866913 0.05023923445 0
          0 0.063694267516 0.10819672131 0.10465116279 0.036984352774 0.034120734908
          0.10465116279 0.10819672131 0.063694267516 0 0 0.070981210856
          0.15544871795 0.16500711238 0.12290502793 0.11282051282 0.16500711238 0.15544871795
          0.070981210856 0 0 0.082217973231 0.19378698225 0.25459317585
          0.33974358974 0.38981042654 0.25459317585 0.19378698225 0.082217973231 0
          0 0.093418259023 0.24918032787 0.35610465116 0.41963015647 0.46456692913
          0.35610465116 0.24918032787 0.093418259023 0 0 0.10765550239
          0.30868761553 0.39508196721 0.44391025641 0.48668639053 0.39508196721 0.30868761553
          0.10765550239 0 0 0.1625 0.35645933014 0.43099787686
          0.44467640919 0.4913957935 0.43099787686 0.35645933014 0.1625 0
          0 0.16165413534 0.35446685879 0.42966751918 0.44472361809 0.49078341014
          0.42966751918 0.35446685879 0.16165413534 0 0 0
          0 0 0 0 0 0
          0 0 0 0.02786377709 0 0
          0 0 0 0 0.02786377709 0
          0 0.054117647059 0.070397111913 0.040064102564 0.014173228346 0.013005780347
          0.040064102564 0.070397111913 0.054117647059 0 0 0.066805845511
          0.11057692308 0.106685633 0.037709497207 0.034615384615 0.106685633 0.11057692308
          0.066805845511 0 0 0.074226804124 0.16062992126 0.16759776536
          0.12362637363 0.11292346299 0.16759776536 0.16062992126 0.074226804124 0
          0 0.084427767355 0.19942196532 0.25769230769 0.33877038896 0.39145496536
          0.25769230769 0.19942196532 0.084427767355 0 0 0.093945720251
          0.25320512821 0.35988620199 0.41899441341 0.46666666667 0.35988620199 0.25320512821
          0.093945720251 0 0 0.10588235294 0.31407942238 0.39903846154
          0.44409448819 0.48988439306 0.39903846154 0.31407942238 0.10588235294 0
          0 0.16718266254 0.36705882353 0.43841336117 0.44536082474 0.49530956848
          0.43841336117 0.36705882353 0.16718266254 0 0 0.16728624535
          0.36543909348 0.43718592965 0.44554455446 0.49435665914 0.43718592965 0.36543909348
          0.16728624535 0 0 0 0 0
          0 0 0 0 0 0
          0 0.025280898876 0 0 0 0
          0 0 0.025280898876 0 0 0.049568965517
          0.066666666667 0.038461538462 0.013005780347 0.012016021362 0.038461538462 0.066666666667
          0.049568965517 0 0 0.06309751434 0.1050295858 0.10367454068
          0.037179487179 0.034360189573 0.10367454068 0.1050295858 0.06309751434 0
          0 0.071294559099 0.15462427746 0.1641025641 0.12296110414 0.11316397229
          0.1641025641 0.15462427746 0.071294559099 0 0 0.082616179002
          0.19359145527 0.25473933649 0.34064665127 0.38930481283 0.25473933649 0.19359145527
          0.082616179002 0 0 0.093690248566 0.24852071006 0.35564304462
          0.41923076923 0.46327014218 0.35564304462 0.24852071006 0.093690248566 0
          0 0.10775862069 0.30833333333 0.39349112426 0.4436416185 0.48598130841
          0.39349112426 0.30833333333 0.10775862069 0 0 0.16292134831
          0.35560344828 0.43021032505 0.44465290807 0.49053356282 0.43021032505 0.35560344828
          0.16292134831 0 0 0.16216216216 0.35324675325 0.42857142857
          0.44469525959 0.48962655602 0.42857142857 0.35324675325 0.16216216216 0
          0 0 0 0 0 0
          0 0 0 0 0 0.025
          0 0 0 0 0 0
          0.025 0 0 0.05023923445 0.068391866913 0.039344262295
          0.012820512821 0.011834319527 0.039344262295 0.068391866913 0.05023923445 0
          0 0.063694267516 0.10819672131 0.10465116279 0.036984352774 0.034120734908
          0.10465116279 0.10819672131 0.063694267516 0 0 0.070981210856
          0.15544871795 0.16500711238 0.12290502793 0.11282051282 0.16500711238 0.15544871795
          0.070981210856 0 0 0.082217973231 0.19378698225 0.25459317585
          0.33974358974 0.38981042654 0.25459317585 0.19378698225 0.082217973231 0
          0 0.093418259023 0.24918032787 0.35610465116 0.41963015647 0.46456692913
          0.35610465116 0.24918032787 0.093418259023 0 0 0.10765550239
          0.30868761553 0.39508196721 0.44391025641 0.48668639053 0.39508196721 0.30868761553
          0.10765550239 0 0 0.1625 0.35645933014 0.43099787686
          0.44467640919 0.4913957935 0.43099787686 0.35645933014 0.1625 0
          0 0.16165413534 0.35446685879 0.42966751918 0.44472361809 0.49078341014
          0.42966751918 0.35446685879 0.16165413534 0 0 0
          0 0 0 0 0 0
          0 0 0 0.024647887324 0 0
          0 0 0 0 0.024647887324 0
          0 0.051212938005 0.06875 0.038817005545 0.012635379061 0.011666666667
          0.038817005545 0.06875 0.051212938005 0 0 0.064593301435
          0.10905730129 0.10491803279 0.036858974359 0.034023668639 0.10491803279 0.10905730129
          0.064593301435 0 0 0.070588235294 0.15523465704 0.16506410256
          0.12283464567 0.11271676301 0.16506410256 0.15523465704 0.070588235294 0
          0 0.081896551724 0.19333333333 0.25443786982 0.33959537572 0.38985313752
          0.25443786982 0.19333333333 0.081896551724 0 0 0.093301435407
          0.24768946396 0.35573770492 0.41987179487 0.46449704142 0.35573770492 0.24768946396
          0.093301435407 0 0 0.10781671159 0.30833333333 0.39556377079
          0.4440433213 0.48666666667 0.39556377079 0.30833333333 0.10781671159 0
          0 0.16197183099 0.35579514825 0.43062200957 0.44470588235 0.49137931034
          0.43062200957 0.35579514825 0.16197183099 0 0 0.16101694915
          0.3538961039 0.42939481268 0.4447592068 0.49090909091 0.42939481268 0.3538961039
          0.16101694915 0 0 0 0 0
          0 0 0 0 0 0
          0 0.027906976744 0 0 0 0
          0 0 0.027906976744 0 0 0.056338028169
          0.072776280323 0.040669856459 0.014117647059 0.012931034483 0.040669856459 0.072776280323
          0.056338028169 0 0 0.06875 0.11483253589 0.10828025478
          0.0375782881 0.034416826004 0.10828025478 0.11483253589 0.06875 0
          0 0.074303405573 0.16235294118 0.16910229645 0.12371134021 0.11257035647
          0.16910229645 0.16235294118 0.074303405573 0 0 0.084269662921
          0.20043103448 0.25812619503 0.33771106942 0.39242685026 0.25812619503 0.20043103448
          0.084269662921 0 0 0.09375 0.25358851675 0.36093418259
          0.41962421712 0.46845124283 0.36093418259 0.25358851675 0.09375 0
          0 0.10563380282 0.3153638814 0.4019138756 0.44470588235 0.49137931034
          0.4019138756 0.3153638814 0.10563380282 0 0 0.16744186047
          0.36971830986 0.440625 0.44582043344 0.49719101124 0.440625 0.36971830986
          0.16744186047 0 0 0.16759776536 0.3686440678 0.43984962406
          0.44609665428 0.49662162162 0.43984962406 0.3686440678 0.16759776536 0
          0 0 0 0 0 0
          0 0 0 0 0 0.027932960894
          0 0 0 0 0 0
          0.027932960894 0 0 0.055084745763 0.071428571429 0.040345821326
          0.014164305949 0.012987012987 0.040345821326 0.071428571429 0.055084745763 0
          0 0.067669172932 0.11239193084 0.1074168798 0.037688442211 0.034562211982
          0.1074168798 0.11239193084 0.067669172932 0 0 0.074349442379
          0.16147308782 0.16834170854 0.12376237624 0.11286681716 0.16834170854 0.16147308782
          0.074349442379 0 0 0.084459459459 0.2 0.25806451613
          0.33860045147 0.39211618257 0.25806451613 0.2 0.084459459459 0
          0 0.093984962406 0.25360230548 0.36061381074 0.41959798995 0.46774193548
          0.36061381074 0.25360230548 0.093984962406 0 0 0.10593220339
          0.31493506494 0.40057636888 0.4447592068 0.49090909091 0.40057636888 0.31493506494
          0.10593220339 0 0 0.16759776536 0.3686440678 0.43984962406
          0.44609665428 0.49662162162 0.43984962406 0.3686440678 0.16759776536 0
          0 0.1677852349 0.36734693878 0.43891402715 0.44642857143 0.49593495935
          0.43891402715 0.36734693878 0.1677852349 0
        </DataArray>
        <DataArray type="Float64" Name="Displacement" NumberOfComponents="3" format="ascii" RangeMin="2.0000016008" RangeMax="2.0244101966">
          -0.0022852995239 2.024329661 -0.0023064228014 -0.0014257146134 2.0231872878 -0.0021828668935
          -0.00063182649178 2.0224134169 -0.0018843807051 -0.00025431708672 2.0220257971 -0.0017019660859
          -0.00016657532037 2.0218956845 -0.00162726293 -1.5208244267e-05 2.0218758023 -0.0015783224087
          0.00017293723706 2.0220282001 -0.0016910442231 0.00055526240901 2.0224167613 -0.0018701978316
          0.0013575440649 2.0231935894 -0.0021650615137 0.0022331750774 2.0243421198 -0.0022845812757
          -0.0012767611367 2.0229468331 -0.0013894654076 -0.00053913021583 2.0218209611 -0.0011659656745
          -0.0001485592392 2.021042517 -0.00080661386104 -5.6548837006e-05 2.0207402045 -0.00059551489952
          -8.4446208444e-05 2.0206525169 -0.00050196282198 -5.8362330243e-05 2.0206167727 -0.00046860054986
          -3.4470872734e-05 2.0207292904 -0.00058509897287 6.2985846616e-05 2.0210314878 -0.00079347750942
          0.00046206288864 2.0218130771 -0.0011490126135 0.0012170038894 2.0229465643 -0.0013665318985
          -0.00056353666197 2.020777266 -0.00069667903565 -0.00010059757866 2.0202235944 -0.0005869614155
          2.3813432478e-05 2.0199528139 -0.00040034408753 -3.5778863361e-05 2.0198159436 -0.00027992733143
          -5.8802395525e-05 2.0197258479 -0.00024428397771 -3.462790045e-05 2.0197026286 -0.00023165402913
          -5.0215626379e-05 2.0197985082 -0.00027152299196 -0.00010895557549 2.0199325366 -0.00038924536868
          2.223977514e-05 2.0202015566 -0.00057231977915 0.00050172860219 2.0207605236 -0.0006748488302
          -0.0003858741876 2.0198537447 -0.00049588202006 -0.00010277689348 2.0196409918 -0.00047299591444
          -3.6126930041e-05 2.0196035875 -0.00036827138942 -1.5814709944e-05 2.0196120063 -0.00026041399171
          -3.7838958168e-05 2.0195458366 -0.00029320465092 -2.7923649157e-05 2.0195334676 -0.00029111177411
          -6.0649126501e-05 2.0195984031 -0.00025383315921 -4.1289533816e-05 2.0195826728 -0.00035887944768
          3.0243836966e-05 2.0196142308 -0.00046014632549 0.00032678178091 2.0198283162 -0.00047523168644
          -0.00041565627717 2.0195140175 -0.00054699285705 -0.00023259392365 2.019443053 -0.00057798917119
          -0.00019250060433 2.0194831312 -0.00048054052883 -8.2521898212e-05 2.0195340415 -0.00040269270259
          4.6443306761e-05 2.0196762538 -0.00034772388901 -0.00011854262442 2.019672084 -0.00034018882352
          1.5204446438e-05 2.0195227611 -0.00039648805521 0.00012564266288 2.019462289 -0.00047212308959
          0.00017013125812 2.0194144666 -0.0005663399493 0.00036291272023 2.0194839978 -0.00052764773291
          -0.00078173198178 2.018213338 -0.0012940821596 -0.00061144409685 2.018229226 -0.0012724119454
          -0.00049436336635 2.0182471758 -0.0012209679966 -0.00033387897168 2.0183033554 -0.0012732682684
          -0.00040587114468 2.0183833416 -0.0015704539865 0.00036332665204 2.0183839089 -0.0015750982013
          0.00028129321177 2.0182924796 -0.0012686026162 0.00044156501273 2.0182266302 -0.0012134117284
          0.00056193096607 2.0182004473 -0.001261829088 0.00073810168845 2.0181807643 -0.0012765209521
          -0.00090277159966 2.0176986071 -0.0017232819286 -0.00075693156876 2.017858655 -0.0016507505409
          -0.00072329147541 2.0179175565 -0.0016001034684 -0.00066620117006 2.0179682164 -0.0017583745393
          -0.0002281466599 2.0179517406 -0.0018608354689 0.00020323359148 2.0179570713 -0.0018685585467
          0.00063512314877 2.0179590293 -0.0017578533258 0.00068784479256 2.0178970028 -0.0015942044098
          0.00072162440476 2.0178294889 -0.0016412141139 0.00086942759016 2.0176646907 -0.0017076430893
          -0.001096758336 2.0169222228 -0.0024231659464 -0.0008341895639 2.0172299955 -0.0023870743796
          -0.00070902153773 2.0174019122 -0.0022845310525 -0.00055535391209 2.0173871269 -0.0024214050707
          4.083262101e-05 2.0169651258 -0.0025495546275 -5.3978051207e-05 2.0169716633 -0.0025562616832
          0.0005396299721 2.0173805214 -0.0024222049006 0.00069096380777 2.0173836512 -0.002280107573
          0.00081247649495 2.0172021027 -0.0023785151352 0.0010737598465 2.016889665 -0.0024095591139
          -0.0011252732239 2.016299122 -0.0031279154286 -0.00068933688541 2.0160321808 -0.0036145109525
          -0.00042531489131 2.0163184148 -0.0034350085638 -0.0002606414253 2.0161418115 -0.0035211832437
          0.00018526480415 2.0155436486 -0.0036938029784 -0.00019073333235 2.0155489859 -0.0036989471127
          0.00025683048656 2.0161383098 -0.0035218633269 0.0004205149802 2.0163054853 -0.0034304954796
          0.00068125395469 2.0160115063 -0.003605336048 0.0011118708857 2.0162745032 -0.0031158946788
          -0.0057239242427 2 -0.0082621494776 -0.0031012583846 2 -0.011162009595
          -0.00065193404044 2 -0.012257663456 0.0014664304349 2 -0.011718146324
          0.0046392840947 2 -0.0090445589315 -0.004640972069 2 -0.009048767271
          -0.0014650249144 2 -0.011717546685 0.00065240794046 2 -0.012250959005
          0.0030968383304 2 -0.011150512053 0.0057130365212 2 -0.0082490209209
          -0.0021968562889 2.0232435926 -0.0014614431961 -0.001260837104 2.0219678035 -0.0012595614067
          -0.00050848172422 2.0212228481 -0.00097851694324 -0.0002176556775 2.0209014233 -0.00079515600663
          -0.00015494524669 2.0208020039 -0.00071206886077 -2.8375381441e-05 2.0207928479 -0.00068142767585
          0.00011714440582 2.0208995695 -0.00078939617246 0.0004150318973 2.0212201935 -0.00096944039068
          0.0011781549228 2.0219681426 -0.001246739535 0.0021344168385 2.0232535318 -0.0014438738212
          -0.0010719684065 2.0218401731 -0.00072520118017 -0.00044165857164 2.0208093469 -0.00053074640447
          -0.00019921245148 2.0202865073 -0.00032360167836 -0.00013576678764 2.020125416 -0.00018351978276
          -0.0001067615512 2.0200842609 -0.00012681762973 -3.0494521018e-05 2.0200658045 -0.00010895578911
          3.2865874457e-05 2.0201112099 -0.0001773070503 0.0001004682094 2.0202704813 -0.00031490380712
          0.00035074304249 2.020795609 -0.00051868658954 0.0010002026023 2.0218359009 -0.00070698851083
          -0.00054888678212 2.0202995491 -0.00029323301718 -0.00024922706264 2.019918644 -0.00025679279063
          -0.00015988974489 2.0197606127 -0.00017020526173 -0.00012241952254 2.0196775659 -0.00013902706881
          -9.2124030247e-05 2.0196065563 -0.00015515276558 -2.0824998805e-05 2.019597399 -0.0001428048343
          3.0555352423e-05 2.0196616325 -0.0001327391196 6.5945889903e-05 2.0197398965 -0.00016238428004
          0.00015920745088 2.0198938607 -0.00024636210206 0.00047498016284 2.0202785089 -0.00027601301883
          -0.00051087252189 2.0198239821 -0.00019058046879 -0.00033507906485 2.0196822242 -0.00021092348877
          -0.00018614271435 2.0196145096 -0.00017281801298 -4.3588860846e-05 2.0196259421 -0.00014860652533
          -6.4550059514e-05 2.0195227315 -0.00021242162454 -3.1681869071e-05 2.0195185352 -0.00020520836585
          -3.7720506376e-05 2.0196145562 -0.00014308239876 0.00010158100766 2.0195948272 -0.00016598791579
          0.00025287656859 2.0196546283 -0.00020188646304 0.00044068596317 2.0197948347 -0.00017456690657
          -0.00058585705735 2.0197284432 -0.00024467578311 -0.00045936763276 2.019648601 -0.00027495376932
          -0.00024145086745 2.019568734 -0.00024542350069 2.7026774061e-06 2.019623565 -0.0002265563522
          0.00011914126279 2.0197724206 -0.00019996867368 -0.00019724247139 2.019769319 -0.00019403305751
          -7.673886946e-05 2.0196144213 -0.00022103145235 0.00016703936973 2.0195492783 -0.00023908185464
          0.00038833645522 2.0196197339 -0.00026667372382 0.00052337678077 2.01969511 -0.00022981850423
          -0.0010759047203 2.0184906089 -0.00082780468582 -0.00089103010409 2.0184168234 -0.00088459297547
          -0.00057526953364 2.0184983001 -0.00095111356229 -0.00019587617039 2.0186614141 -0.00097951926311
          9.3455694664e-05 2.0186991623 -0.0010569060589 -0.00014692384014 2.018701762 -0.0010582928965
          0.00013476261264 2.0186523986 -0.00097486796364 0.00051455081496 2.0184787632 -0.00094522503474
          0.00083385770556 2.0183876964 -0.00087686831138 0.001024131307 2.0184549973 -0.00081432285485
          -0.0010712155914 2.0182824098 -0.0011230229959 -0.000925074045 2.0182185341 -0.0011165839826
          -0.00069039373868 2.0182578421 -0.0011846621142 -0.00037786546719 2.0183201014 -0.0012747387717
          -1.9395731135e-05 2.0183987932 -0.001312650982 -1.4710418521e-05 2.0184054068 -0.0013177499743
          0.00033847810246 2.0183123283 -0.0012737092038 0.00064785192136 2.018238013 -0.0011800190844
          0.00088352686156 2.0181888024 -0.001109477037 0.0010315948796 2.0182452262 -0.001111019092
          -0.0011164026189 2.0178220229 -0.0016536956029 -0.0008098539749 2.0179637439 -0.0015306280781
          -0.0006538426977 2.0179488472 -0.0014883849396 -0.00050166031369 2.0179833062 -0.0016002234208
          -4.2272277445e-05 2.0179463556 -0.001736688423 2.3112409395e-05 2.0179545972 -0.0017419936406
          0.00048030739857 2.0179780101 -0.0016008340202 0.00063048127688 2.0179309541 -0.001485133223
          0.00078386569533 2.0179348499 -0.001524232139 0.0010891817334 2.0177857532 -0.0016432449725
          -0.0013842430055 2.0167678024 -0.002529280111 -0.0005535170597 2.0174898388 -0.0024415885256
          -0.00039929348563 2.0177908411 -0.0020919958319 -0.00044289086316 2.0176601454 -0.0022309464577
          0.00018166529986 2.0168248938 -0.0027269921224 -0.00019003765249 2.0168328821 -0.0027317762788
          0.00043588171233 2.0176574284 -0.0022320132808 0.00039131459476 2.0177767557 -0.0020888994454
          0.00054266614276 2.0174661002 -0.002434669012 0.0013682607935 2.0167387179 -0.0025196784751
          -0.0081225518221 2 -0.0047662490438 -0.0059770932275 2 -0.0079388053031
          -0.0013937158859 2 -0.0098923008741 0.0034982780467 2 -0.0090276376157
          0.0077983173025 2 -0.0053757141236 -0.0078019988376 2 -0.0053805423082
          -0.0034975452577 2 -0.0090280644495 0.0013934100164 2 -0.009886755459
          0.0059702826425 2 -0.0079286961464 0.0081078569808 2 -0.0047547088494
          -0.0019755565533 2.0225262642 -0.00069651114393 -0.0010530312709 2.0212737803 -0.00053510222657
          -0.00042617929449 2.0206407538 -0.00039498479133 -0.00021855291316 2.0204182209 -0.0002908446308
          -0.00015684870996 2.0203509276 -0.00023273726933 -2.1143634356e-05 2.020351344 -0.00022850986482
          0.00010737621784 2.0204125871 -0.00028918035555 0.00032083333271 2.020632623 -0.00039124123316
          0.00095829365382 2.0212677719 -0.00052855843222 0.0019046163671 2.0225324884 -0.00068530308852
          -0.00086025104476 2.0211708041 -0.00027042352077 -0.00034270784308 2.0203496812 -0.000221004214
          -0.00021595144426 2.0200503134 -0.00018043494769 -0.00016284313712 2.0199944657 -0.00013502796307
          -0.00012101877577 2.0199822441 -0.00012145513156 -2.3271960798e-05 2.0199756228 -0.00011431801591
          5.4872782107e-05 2.0199793063 -0.0001306409164 0.00010915872873 2.0200310731 -0.00017522836044
          0.00024142860329 2.0203307309 -0.00021438365838 0.00077921388906 2.0211621621 -0.00025906822075
          -0.00052242569429 2.0200620855 -0.00012403925671 -0.00027800764239 2.0198103447 -0.00016892414947
          -0.00016574716793 2.0197439928 -0.00013096432173 -9.7630774259e-05 2.0197144075 -0.00010852741139
          -9.1102416674e-05 2.0196708985 -0.00010783125377 -4.0292736047e-05 2.019669659 -9.5528255777e-05
          1.5246956978e-06 2.0197003483 -0.00010288893364 6.6536567584e-05 2.0197234099 -0.00012533806168
          0.00018009898603 2.0197835813 -0.00016259452065 0.00043964812958 2.0200373636 -0.00011328930381
          -0.00057036238534 2.0198760515 -0.00010386217175 -0.00036775633633 2.0197027781 -0.00014600638382
          -0.00015137686884 2.0196479275 -0.00012218014463 -2.542361996e-05 2.0196857429 -0.00010983210873
          -6.4941250294e-05 2.019611079 -0.00011221376608 -4.7789627902e-05 2.0196134715 -0.0001022731179
          -6.0838055519e-05 2.0196747971 -0.00010500893962 6.2037498103e-05 2.0196284918 -0.00011722391561
          0.00027931568808 2.0196745809 -0.00014062150192 0.00049244836048 2.0198442347 -9.4385696167e-05
          -0.00061915434137 2.0199458372 -0.00012432650023 -0.00043289855655 2.0197078265 -0.00014237397495
          -0.00015680407663 2.019633818 -0.0001440093209 2.8471304302e-05 2.0197258996 -0.00012391143511
          6.4402953263e-05 2.0198096333 -8.9586651534e-05 -0.00014551901456 2.0198124721 -8.3828500335e-05
          -0.00010708605557 2.0197168095 -0.00011992974777 7.7263285073e-05 2.0196144655 -0.00013984040298
          0.00035611805518 2.0196786407 -0.00013762265414 0.00054999771508 2.019910453 -0.00011600973675
          -0.0011007460094 2.0185830024 -0.00050301768678 -0.00087831214978 2.0186270945 -0.00054683192147
          -0.00054215167695 2.0187370799 -0.00056095896948 -0.00019667310295 2.0188824391 -0.00055900853951
          0.00022361143758 2.0189584696 -0.00056723726647 -0.00028359980022 2.0189621297 -0.00056692874112
          0.0001300243224 2.0188739928 -0.0005556879246 0.00047582551365 2.0187176885 -0.00055720707862
          0.0008155961195 2.0185975761 -0.00054227972773 0.0010432954725 2.0185456763 -0.00049543888782
          -0.0010310662148 2.0185133174 -0.00063722395844 -0.00090601197898 2.0184117723 -0.00072565614199
          -0.00064461108952 2.018523724 -0.00077453204861 -0.00023775248068 2.0186011661 -0.00080117333361
          8.3299963348e-05 2.018574254 -0.00079617200119 -0.00012435986394 2.0185815464 -0.00079859232055
          0.00019219044428 2.0185940452 -0.00080016587994 0.0005965347748 2.018504133 -0.00077154752964
          0.00085956117662 2.0183816615 -0.00072132390067 0.00098698091985 2.018474284 -0.00063040064151
          -0.00086401485108 2.018399162 -0.00086938447828 -0.00067872416788 2.0182345003 -0.0009161837781
          -0.0005870472569 2.0181588803 -0.00096083817135 -0.0004599907181 2.0182013078 -0.0010001930806
          -0.00023593699707 2.0183832868 -0.00099057120591 0.00021146833768 2.0183925979 -0.0009938540423
          0.00043369137036 2.0181967461 -0.0010005250499 0.00055907930709 2.018141237 -0.00095892725794
          0.0006490420227 2.0182050731 -0.00091231548855 0.00083381040273 2.0183606908 -0.00086339533267
          -0.00089195696019 2.0178681738 -0.0014271975751 -7.1928080539e-05 2.0183237706 -0.0012142296034
          -0.00030814191727 2.018211424 -0.0010228121071 -0.00081697379054 2.0182370272 -0.0011213446626
          -0.00042784006078 2.0180052544 -0.0014439214645 0.00041657869464 2.0180153275 -0.0014474194007
          0.00080665246015 2.0182351695 -0.0011223573488 0.00029698017213 2.0181970032 -0.0010211809169
          5.857748126e-05 2.0182984353 -0.0012101628604 0.00087416796036 2.0178361465 -0.0014211008631
          -0.0093092014247 2 -0.0024423386269 -0.0077423059536 2 -0.0045446492669
          -0.0020002411399 2 -0.0060550596082 0.0049338721253 2 -0.0053904448321
          0.0090824774044 2 -0.0029976741512 -0.0090885656269 2 -0.0030019607159
          -0.0049343865952 2 -0.0053913986428 0.0019988334045 2 -0.0060512576971
          0.0077331589263 2 -0.0045372533107 0.0092914135358 2 -0.0024336888341
          -0.0018613060652 2.0221683416 -0.0003209980064 -0.00093207652604 2.020974786 -0.0002613586179
          -0.00036240621582 2.0204421366 -0.0002295938739 -0.00020222535763 2.0203069251 -0.0001945060164
          -0.00015566792553 2.0202797716 -0.00016716663451 -2.4866616318e-05 2.0202834059 -0.000170127987
          8.599074909e-05 2.0202990497 -0.0001937948545 0.00025083581722 2.0204308479 -0.00022805251523
          0.00083042970412 2.0209651965 -0.00025845254689 0.0017854727964 2.0221726554 -0.00031524591465
          -0.00073581424984 2.0209011054 -0.00014842067808 -0.00026939313203 2.0202117383 -0.00015987352507
          -0.00020066854078 2.0200191302 -0.00015660602083 -0.00015824987781 2.0200140623 -0.00014202382055
          -0.00012406987218 2.0200155166 -0.00013772545577 -2.6793397464e-05 2.0200112155 -0.00013385364351
          4.7549983553e-05 2.0199984899 -0.0001389885501 8.9773277679e-05 2.0199981635 -0.00015347789075
          0.00016246067804 2.0201898653 -0.00015649730797 0.00064941835828 2.0208902455 -0.00014254776344
          -0.00045736539043 2.0200021729 -0.00012468561842 -0.00025203194322 2.0198031623 -0.00014361819915
          -0.00014686327694 2.0197768895 -0.00011244526278 -8.2385473134e-05 2.0197678482 -9.1369522064e-05
          -9.0141118325e-05 2.0197326032 -8.1434250815e-05 -4.793639973e-05 2.0197355567 -7.6357854644e-05
          -1.669737526e-05 2.0197545663 -8.771592822e-05 4.468431358e-05 2.0197562036 -0.00010891305774
          0.0001500397619 2.0197751521 -0.00014007376976 0.0003695554919 2.0199755367 -0.00011904452
          -0.00051685176522 2.0199319046 -0.00011865556556 -0.00031968021394 2.019743971 -0.00011827631327
          -0.00011862499729 2.0197175475 -0.00010107596172 -2.6835565792e-05 2.0197700521 -9.5183379263e-05
          -6.8149119438e-05 2.0197154021 -8.6773877081e-05 -5.0018826029e-05 2.0197206401 -8.3813422779e-05
          -6.2532709937e-05 2.0197589459 -9.2215334886e-05 2.6518511036e-05 2.01969786 -9.8060903556e-05
          0.00022812450203 2.0197152039 -0.0001152877321 0.00043462932586 2.0198987189 -0.00011382732251
          -0.00053498780724 2.0200504544 -0.00011529927109 -0.00033720309396 2.0197677509 -0.0001058443058
          -9.9600862765e-05 2.0197384181 -0.00011501097256 1.402520672e-05 2.0198372736 -0.00010155226472