<?xml version="1.0"?>
<VTKFile type="UnstructuredGrid" version="0.1" byte_order="LittleEndian" compressor="vtkZLibDataCompressor">
  <UnstructuredGrid>
    <FieldData>
      <DataArray type="Float64" Name="TIME" NumberOfTuples="1" format="ascii" RangeMin="0.2599746758" RangeMax="0.2599746758">
        0.2599746758
      </DataArray>
    </FieldData>
    <Piece NumberOfPoints="1000" NumberOfCells="0">
      <PointData>
        <DataArray type="Float64" Name="Damage" format="ascii" RangeMin="0" RangeMax="0.49719101124">
          0 0 0 0 0 0
          0 0 0 0 0 0.027932960894
          0 0 0 0 0 0
          0.027932960894 0 0 0.055084745763 0.071428571429 0.040345821326
          0.014164305949 0.012987012987 0.040345821326 0.071428571429 0.055084745763 0
          0 0.067669172932 0.11239193084 0.1074168798 0.037688442211 0.034562211982
          0.1074168798 0.11239193084 0.067669172932 0 0 0.074349442379
          0.16147308782 0.16834170854 0.12376237624 0.11286681716 0.16834170854 0.16147308782
          0.074349442379 0 0 0.084459459459 0.2 0.25806451613
          0.33860045147 0.39211618257 0.25806451613 0.2 0.084459459459 0
          0 0.093984962406 0.25360230548 0.36061381074 0.41959798995 0.46774193548
          0.36061381074 0.25360230548 0.093984962406 0 0 0.10593220339
          0.31493506494 0.40057636888 0.4447592068 0.49090909091 0.40057636888 0.31493506494
          0.10593220339 0 0 0.16759776536 0.3686440678 0.43984962406
          0.44609665428 0.49662162162 0.43984962406 0.3686440678 0.16759776536 0
          0 0.1677852349 0.36734693878 0.43891402715 0.44642857143 0.49593495935
          0.43891402715 0.36734693878 0.1677852349 0 0 0
          0 0 0 0 0 0
          0 0 0 0.027906976744 0 0
          0 0 0 0 0.027906976744 0
          0 0.056338028169 0.072776280323 0.040669856459 0.014117647059 0.012931034483
          0.040669856459 0.072776280323 0.056338028169 0 0 0.06875
          0.11483253589 0.10828025478 0.0375782881 0.034416826004 0.10828025478 0.11483253589
          0.06875 0 0 0.074303405573 0.16235294118 0.16910229645
          0.12371134021 0.11257035647 0.16910229645 0.16235294118 0.074303405573 0
          0 0.084269662921 0.20043103448 0.25812619503 0.33771106942 0.39242685026
          0.25812619503 0.20043103448 0.084269662921 0 0 0.09375
          0.25358851675 0.36093418259 0.41962421712 0.46845124283 0.36093418259 0.25358851675
          0.09375 0 0 0.10563380282 0.3153638814 0.4019138756
          0.44470588235 0.49137931034 0.4019138756 0.3153638814 0.10563380282 0
          0 0.16744186047 0.36971830986 0.440625 0.44582043344 0.49719101124
          0.440625 0.36971830986 0.16744186047 0 0 0.16759776536
          0.3686440678 0.43984962406 0.44609665428 0.49662162162 0.43984962406 0.3686440678
          0.16759776536 0 0 0 0 0
          0 0 0 0 0 0
          0 0.024647887324 0 0 0 0
          0 0 0.024647887324 0 0 0.051212938005
          0.06875 0.038817005545 0.012635379061 0.011666666667 0.038817005545 0.06875
          0.051212938005 0 0 0.064593301435 0.10905730129 0.10491803279
          0.036858974359 0.034023668639 0.10491803279 0.10905730129 0.064593301435 0
          0 0.070588235294 0.15523465704 0.16506410256 0.12283464567 0.11271676301
          0.16506410256 0.15523465704 0.070588235294 0 0 0.081896551724
          0.19333333333 0.25443786982 0.33959537572 0.38985313752 0.25443786982 0.19333333333
          0.081896551724 0 0 0.093301435407 0.24768946396 0.35573770492
          0.41987179487 0.46449704142 0.35573770492 0.24768946396 0.093301435407 0
          0 0.10781671159 0.30833333333 0.39556377079 0.4440433213 0.48666666667
          0.39556377079 0.30833333333 0.10781671159 0 0 0.16197183099
          0.35579514825 0.43062200957 0.44470588235 0.49137931034 0.43062200957 0.35579514825
          0.16197183099 0 0 0.16101694915 0.3538961039 0.42939481268
          0.4447592068 0.49090909091 0.42939481268 0.3538961039 0.16101694915 0
          0 0 0 0 0 0
          0 0 0 0 0 0.025
          0 0 0 0 0 0
          0.025 0 0 0.05023923445 0.068391866913 0.039344262295
          0.012820512821 0.011834319527 0.039344262295 0.068391866913 0.05023923445 0
          0 0.063694267516 0.10819672131 0.10465116279 0.036984352774 0.034120734908
          0.10465116279 0.10819672131 0.063694267516 0 0 0.070981210856
          0.15544871795 0.16500711238 0.12290502793 0.11282051282 0.16500711238 0.15544871795
          0.070981210856 0 0 0.082217973231 0.19378698225 0.25459317585
          0.33974358974 0.38981042654 0.25459317585 0.19378698225 0.082217973231 0
          0 0.093418259023 0.24918032787 0.35610465116 0.41963015647 0.46456692913
          0.35610465116 0.24918032787 0.093418259023 0 0 0.10765550239
          0.30868761553 0.39508196721 0.44391025641 0.48668639053 0.39508196721 0.30868761553
          0.10765550239 0 0 0.1625 0.35645933014 0.43099787686
          0.44467640919 0.4913957935 0.43099787686 0.35645933014 0.1625 0
          0 0.16165413534 0.35446685879 0.42966751918 0.44472361809 0.49078341014
          0.42966751918 0.35446685879 0.16165413534 0 0 0
          0 0 0 0 0 0
          0 0 0 0.02786377709 0 0
          0 0 0 0 0.02786377709 0
          0 0.054117647059 0.070397111913 0.040064102564 0.014173228346 0.013005780347
          0.040064102564 0.070397111913 0.054117647059 0 0 0.066805845511
          0.11057692308 0.106685633 0.037709497207 0.034615384615 0.106685633 0.11057692308
          0.066805845511 0 0 0.074226804124 0.16062992126 0.16759776536
          0.12362637363 0.11292346299 0.16759776536 0.16062992126 0.074226804124 0
          0 0.084427767355 0.19942196532 0.25769230769 0.33877038896 0.39145496536
          0.25769230769 0.19942196532 0.084427767355 0 0 0.093945720251
          0.25320512821 0.35988620199 0.41899441341 0.46666666667 0.35988620199 0.25320512821
          0.093945720251 0 0 0.10588235294 0.31407942238 0.39903846154
          0.44409448819 0.48988439306 0.39903846154 0.31407942238 0.10588235294 0
          0 0.16718266254 0.36705882353 0.43841336117 0.44536082474 0.49530956848
          0.43841336117 0.36705882353 0.16718266254 0 0 0.16728624535
          0.36543909348 0.43718592965 0.44554455446 0.49435665914 0.43718592965 0.36543909348
          0.16728624535 0 0 0 0 0
          0 0 0 0 0 0
          0 0.025280898876 0 0 0 0
          0 0 0.025280898876 0 0 0.049568965517
          0.066666666667 0.038461538462 0.013005780347 0.012016021362 0.038461538462 0.066666666667
          0.049568965517 0 0 0.06309751434 0.1050295858 0.10367454068
          0.037179487179 0.034360189573 0.10367454068 0.1050295858 0.06309751434 0
          0 0.071294559099 0.15462427746 0.1641025641 0.12296110414 0.11316397229
          0.1641025641 0.15462427746 0.071294559099 0 0 0.082616179002
          0.19359145527 0.25473933649 0.34064665127 0.38930481283 0.25473933649 0.19359145527
          0.082616179002 0 0 0.093690248566 0.24852071006 0.35564304462
          0.41923076923 0.46327014218 0.35564304462 0.24852071006 0.093690248566 0
          0 0.10775862069 0.30833333333 0.39349112426 0.4436416185 0.48598130841
          0.39349112426 0.30833333333 0.10775862069 0 0 0.16292134831
          0.35560344828 0.43021032505 0.44465290807 0.49053356282 0.43021032505 0.35560344828
          0.16292134831 0 0 0.16216216216 0.35324675325 0.42857142857
          0.44469525959 0.48962655602 0.42857142857 0.35324675325 0.16216216216 0
          0 0 0 0 0 0
          0 0 0 0 0 0.025
          0 0 0 0 0 0
          0.025 0 0 0.05023923445 0.068391866913 0.039344262295
          0.012820512821 0.011834319527 0.039344262295 0.068391866913 0.05023923445 0
          0 0.063694267516 0.10819672131 0.10465116279 0.036984352774 0.034120734908
          0.10465116279 0.10819672131 0.063694267516 0 0 0.070981210856
          0.15544871795 0.16500711238 0.12290502793 0.11282051282 0.16500711238 0.15544871795
          0.070981210856 0 0 0.082217973231 0.19378698225 0.25459317585
          0.33974358974 0.38981042654 0.25459317585 0.19378698225 0.082217973231 0
          0 0.093418259023 0.24918032787 0.35610465116 0.41963015647 0.46456692913
          0.35610465116 0.24918032787 0.093418259023 0 0 0.10765550239
          0.30868761553 0.39508196721 0.44391025641 0.48668639053 0.39508196721 0.30868761553
          0.10765550239 0 0 0.1625 0.35645933014 0.43099787686
          0.44467640919 0.4913957935 0.43099787686 0.35645933014 0.1625 0
          0 0.16165413534 0.35446685879 0.42966751918 0.44472361809 0.49078341014
          0.42966751918 0.35446685879 0.16165413534 0 0 0
          0 0 0 0 0 0
          0 0 0 0.024647887324 0 0
          0 0 0 0 0.024647887324 0
          0 0.051212938005 0.06875 0.038817005545 0.012635379061 0.011666666667
          0.038817005545 0.06875 0.051212938005 0 0 0.064593301435
          0.10905730129 0.10491803279 0.036858974359 0.034023668639 0.10491803279 0.10905730129
          0.064593301435 0 0 0.070588235294 0.15523465704 0.16506410256
          0.12283464567 0.11271676301 0.16506410256 0.15523465704 0.070588235294 0
          0 0.081896551724 0.19333333333 0.25443786982 0.33959537572 0.38985313752
          0.25443786982 0.19333333333 0.081896551724 0 0 0.093301435407
          0.24768946396 0.35573770492 0.41987179487 0.46449704142 0.35573770492 0.24768946396
          0.093301435407 0 0 0.10781671159 0.30833333333 0.39556377079
          0.4440433213 0.48666666667 0.39556377079 0.30833333333 0.10781671159 0
          0 0.16197183099 0.35579514825 0.43062200957 0.44470588235 0.49137931034
          0.43062200957 0.35579514825 0.16197183099 0 0 0.16101694915
          0.3538961039 0.42939481268 0.4447592068 0.49090909091 0.42939481268 0.3538961039
          0.16101694915 0 0 0 0 0
          0 0 0 0 0 0
          0 0.027906976744 0 0 0 0
          0 0 0.027906976744 0 0 0.056338028169
          0.072776280323 0.040669856459 0.014117647059 0.012931034483 0.040669856459 0.072776280323
          0.056338028169 0 0 0.06875 0.11483253589 0.10828025478
          0.0375782881 0.034416826004 0.10828025478 0.11483253589 0.06875 0
          0 0.074303405573 0.16235294118 0.16910229645 0.12371134021 0.11257035647
          0.16910229645 0.16235294118 0.074303405573 0 0 0.084269662921
          0.20043103448 0.25812619503 0.33771106942 0.39242685026 0.25812619503 0.20043103448
          0.084269662921 0 0 0.09375 0.25358851675 0.36093418259
          0.41962421712 0.46845124283 0.36093418259 0.25358851675 0.09375 0
          0 0.10563380282 0.3153638814 0.4019138756 0.44470588235 0.49137931034
          0.4019138756 0.3153638814 0.10563380282 0 0 0.16744186047
          0.36971830986 0.440625 0.44582043344 0.49719101124 0.440625 0.36971830986
          0.16744186047 0 0 0.16759776536 0.3686440678 0.43984962406
          0.44609665428 0.49662162162 0.43984962406 0.3686440678 0.16759776536 0
          0 0 0 0 0 0
          0 0 0 0 0 0.027932960894
          0 0 0 0 0 0
          0.027932960894 0 0 0.055084745763 0.071428571429 0.040345821326
          0.014164305949 0.012987012987 0.040345821326 0.071428571429 0.055084745763 0
          0 0.067669172932 0.11239193084 0.1074168798 0.037688442211 0.034562211982
          0.1074168798 0.11239193084 0.067669172932 0 0 0.074349442379
          0.16147308782 0.16834170854 0.12376237624 0.11286681716 0.16834170854 0.16147308782
          0.074349442379 0 0 0.084459459459 0.2 0.25806451613
          0.33860045147 0.39211618257 0.25806451613 0.2 0.084459459459 0
          0 0.093984962406 0.25360230548 0.36061381074 0.41959798995 0.46774193548
          0.36061381074 0.25360230548 0.093984962406 0 0 0.10593220339
          0.31493506494 0.40057636888 0.4447592068 0.49090909091 0.40057636888 0.31493506494
          0.10593220339 0 0 0.16759776536 0.3686440678 0.43984962406
          0.44609665428 0.49662162162 0.43984962406 0.3686440678 0.16759776536 0
          0 0.1677852349 0.36734693878 0.43891402715 0.44642857143 0.49593495935
          0.43891402715 0.36734693878 0.1677852349 0
        </DataArray>
        <DataArray type="Float64" Name="Displacement" NumberOfComponents="3" format="ascii" RangeMin="1.4923756199" RangeMax="1.5072308252">
          -0.004937061277 1.4958612382 -0.013647841601 -0.0061507647505 1.5008016782 -0.016659122453
          -0.0058926913943 1.4982221168 -0.015463444582 -0.0057807879882 1.4973705002 -0.014842787748
          -0.0060632089875 1.4975634365 -0.015256136053 -0.0062317324188 1.4973583789 -0.015171294992
          -0.0066632007605 1.496436248 -0.014894755251 -0.0064504969182 1.4966265095 -0.015394102817
          -0.0062224912077 1.4985451877 -0.016629653932 -0.0074938156141 1.4929085577 -0.013760505889
          -0.0055166204212 1.4989710892 -0.01514508711 -0.0048269236753 1.497825725 -0.016200295579
          -0.0055404463742 1.4996025597 -0.017358842287 -0.0055123547027 1.4977952152 -0.016228065769
          -0.0057107454646 1.4977237165 -0.016185076764 -0.0059409033511 1.4972148643 -0.016213606198
          -0.006323640305 1.4970420777 -0.016385953571 -0.0062360494239 1.4978724152 -0.017206980592
          -0.0069146100386 1.4955529422 -0.016092767581 -0.0061042954063 1.4961265724 -0.015108434902
          -0.0050147958991 1.4984248371 -0.016434408628 -0.0055052553153 1.4981217128 -0.016544598844
          -0.00532653496 1.4986642058 -0.017015898783 -0.0057157700907 1.498275716 -0.0165813758
          -0.0056476671455 1.497591245 -0.016438108048 -0.0054214296064 1.4966580506 -0.016183681803
          -0.0054896460896 1.4972813738 -0.016522787909 -0.0057770716492 1.497137171 -0.01701164259
          -0.005629357704 1.4958930073 -0.01652095832 -0.0061394550541 1.4957548319 -0.016486520391
          -0.0046896508375 1.4978294803 -0.016941531548 -0.0053897381496 1.4981022027 -0.016516543887
          -0.0053410818656 1.4984847922 -0.01704801019 -0.0055077576032 1.4978109588 -0.016829674892
          -0.0054503042868 1.4969531819 -0.016335859394 -0.0052087538415 1.496668264 -0.016494747473
          -0.0051652225123 1.4970890889 -0.016951975923 -0.0051901355531 1.4967904526 -0.01700662088
          -0.0051654587778 1.4959219586 -0.016468433662 -0.0057570671682 1.4950027794 -0.016825425828
          -0.0044872248721 1.4978867065 -0.017801860432 -0.004847984908 1.4981920389 -0.017473720586
          -0.0047093038451 1.4978978297 -0.017590940558 -0.004895886921 1.4977506796 -0.01758802583
          -0.0047438874116 1.4972985938 -0.017162341296 -0.005127381098 1.4969071249 -0.01733117493
          -0.0049242088191 1.4967919598 -0.017578643997 -0.0052192908944 1.4962616517 -0.017583417598
          -0.0050474936459 1.4960278214 -0.01744075252 -0.0053292160467 1.4950511461 -0.017669449397
          -0.0041077484709 1.4994920491 -0.018220132311 -0.003811167876 1.4983395089 -0.01775545314
          -0.0045651424645 1.4977629391 -0.017907327118 -0.0045328223966 1.4976988812 -0.017822975724
          -0.0050350969256 1.4965018037 -0.018099286597 -0.0039785872929 1.4961936869 -0.01805441356
          -0.0047128069956 1.4968201612 -0.01778335961 -0.0046783923069 1.4961910034 -0.017914785329
          -0.005471498151 1.4961109385 -0.017732698508 -0.0051263578074 1.4967108871 -0.018127715633
          -0.0035731974955 1.4985351493 -0.019149111717 -0.005301066144 1.498298375 -0.017249722933
          -0.0047636669092 1.4976747699 -0.018482548421 -0.0057658120793 1.4967411407 -0.019545795041
          -0.0013172313055 1.4971943138 -0.016080294688 -0.0072361879714 1.496899645 -0.016021177317
          -0.002828025318 1.4957579927 -0.019469908023 -0.0038600117649 1.4961059113 -0.018415769742
          -0.003357493615 1.4960948327 -0.01721926102 -0.0050124900013 1.4956877029 -0.019075900346
          -0.0031142148 1.5002627287 -0.018253987151 -0.0025141674143 1.4980305884 -0.019495010868
          -0.004561458822 1.4981247052 -0.018378391393 -0.00080080008262 1.4980357945 -0.017348415653
          -0.0078485066916 1.4978574927 -0.02144412282 -0.00013774694563 1.4975513312 -0.021378755082
          -0.0071859214571 1.4970895822 -0.017316089602 -0.0034020233087 1.4965300781 -0.018327136488
          -0.0054535476207 1.4958388729 -0.01943726649 -0.0048128213431 1.4975246801 -0.018067289595
          -0.0036451663082 1.4951068803 -0.021122410273 -0.0012386229544 1.4994589121 -0.018923204277
          -0.0057665461079 1.4996103626 -0.017800322047 -0.0042550399042 1.4954825156 -0.020068367823
          -0.0056376902894 1.4967929683 -0.021058670663 -0.0015994848659 1.4964471116 -0.021040627169
          -0.0029915661307 1.4945300415 -0.020095655781 -0.0014141051303 1.4980701986 -0.017685275799
          -0.0062766208451 1.4972216978 -0.018953859993 -0.0038065393091 1.492222295 -0.021050493057
          0.00011277311995 1.5028538029 -0.015730655475 -0.0046822693369 1.5018923578 -0.012536407292
          -0.0054544658294 1.4967429273 -0.017789257565 -0.0036753889481 1.4934088027 -0.022805522393
          0.006042812936 1.4939050885 -0.01532633634 -0.012932741601 1.4937543142 -0.015101976178
          -0.0029836806042 1.4923597488 -0.022966224076 -0.001242018129 1.4951493691 -0.017772902891
          -0.0018238465478 1.4995766444 -0.012556837225 -0.0065051312874 1.500261287 -0.015172345368
          -0.0058716363614 1.4985843792 -0.014964088618 -0.0060298042871 1.5000587965 -0.016591087777
          -0.0062627575311 1.499704373 -0.016557906063 -0.0058934223526 1.4986628817 -0.01546802607
          -0.0061960754006 1.4982964843 -0.015428894162 -0.0063217977417 1.4978705388 -0.01529193531
          -0.0065213486787 1.4978768426 -0.015669227093 -0.0061823736183 1.4980681633 -0.016441694986
          -0.006346770022 1.4978426178 -0.016556580028 -0.0064719649084 1.4956870354 -0.015057587952
          -0.0057533353521 1.4981935766 -0.014370731429 -0.0061761602735 1.4989044416 -0.015936202232
          -0.00595492904 1.4988043665 -0.01580925569 -0.0058626044478 1.4986992768 -0.016122063782
          -0.0059663780281 1.4980750285 -0.015950923374 -0.0058499301801 1.4976806764 -0.015812108853
          -0.0058974096321 1.4978226027 -0.01620604606 -0.0057699247322 1.4972536205 -0.015788225539
          -0.0055714451657 1.4966839887 -0.015891191787 -0.0059871262667 1.4953933204 -0.014299592198
          -0.0052445657265 1.499808147 -0.015970484954 -0.0054803246581 1.4993907951 -0.016420582491
          -0.0054149254807 1.4990840584 -0.016865322294 -0.0057414910022 1.4981759267 -0.015923261485
          -0.0055991702951 1.4977918106 -0.016013601337 -0.0055056322913 1.4974610638 -0.015974408338
          -0.0054277662634 1.4972343015 -0.015966490978 -0.0056622587922 1.4974586376 -0.01675510493
          -0.0056480839944 1.4971770644 -0.016444991487 -0.0058945863083 1.4969508294 -0.015894028336
          -0.0048718907289 1.4985632574 -0.016623354912 -0.0054803482539 1.4990660304 -0.01632147388
          -0.00527659966 1.4986723569 -0.016584715204 -0.0048971206197 1.498705007 -0.017508915826
          -0.0052605558703 1.4977385915 -0.016432750677 -0.0052517698046 1.4974883674 -0.016545685914
          -0.0056115185671 1.4977390357 -0.017489239694 -0.0052616435718 1.4971010121 -0.016597439898
          -0.0050245593917 1.4968387152 -0.016301338944 -0.0056913682578 1.4957883244 -0.016566676713
          -0.004675830205 1.5005362752 -0.016767936863 -0.0053604042681 1.4991091676 -0.016568586009
          -0.0048024486619 1.4986874013 -0.017336749211 -0.0050624583657 1.4982534537 -0.017136395241
          -0.0049294969976 1.4979373454 -0.017105764031 -0.0049980297324 1.4976833637 -0.017139129767
          -0.0048391114881 1.497346935 -0.017069675036 -0.0050990104353 1.4970905984 -0.017342676918
          -0.0044999360017 1.4968644287 -0.016547520627 -0.0052163898168 1.4977267655 -0.016739720993
          -0.0049874291468 1.4998294986 -0.016699282504 -0.0054041699478 1.4989299722 -0.016901771098
          -0.0043419232982 1.4986424143 -0.017898618006 -0.0042375504309 1.4984207275 -0.017524333486
          -0.0047047252116 1.4977711937 -0.017898599499 -0.0045530274772 1.4974659567 -0.017898539063
          -0.0050804133827 1.4974848703 -0.017537334948 -0.0049218514824 1.4970542296 -0.017901699886
          -0.0038671270431 1.4967079549 -0.016884609116 -0.0042985182284 1.4969356946 -0.01664383694
          -0.0046233268489 1.4992620494 -0.017599398849 -0.0048288468977 1.498802911 -0.017726050014
          -0.0040694196316 1.4985348875 -0.018369709405 -0.0035397690631 1.4981310021 -0.017891839068
          -0.004455165185 1.4977504192 -0.018484014795 -0.00409774804 1.4974499508 -0.018472381881
          -0.005066263472 1.497199018 -0.01787448886 -0.0045539836647 1.4969388913 -0.018364426941
          -0.0037838459514 1.496578067 -0.017738044163 -0.0040418158264 1.4964096057 -0.017528024612
          -0.0032856657495 1.4992952399 -0.019388275699 -0.0038210551367 1.4990288092 -0.018156241429
          -0.0039689947423 1.4982747917 -0.019097106268 -0.003638355201 1.497632535 -0.018826922605
          -0.0041622498293 1.4987702434 -0.018024721381 -0.0038124601479 1.4984894793 -0.018021116307
          -0.004311633936 1.4966973988 -0.01878396555 -0.0039986558929 1.4967035262 -0.01902633882
          -0.0041759006589 1.496848954 -0.018082853955 -0.0046709641376 1.4964405163 -0.019366793766
          -0.0031808073031 1.4981608966 -0.021067860887 -0.0050013485276 1.4985273829 -0.018816419738
          -0.0041593629257 1.4983150972 -0.019611002359 -0.0035722834617 1.4982670017 -0.019437077628
          -0.0042612260313 1.4981438043 -0.020060330562 -0.0030005161005 1.4978940184 -0.020073620636
          -0.0037190656881 1.4973441505 -0.019427735224 -0.0031669976933 1.4967463484 -0.019579559345
          -0.0023488332735 1.4963352231 -0.018752447263 -0.004100544977 1.4952816573 -0.020981956359
          -0.0059922939082 1.4965742541 -0.02183909734 0.0017313347305 1.5040138566 -0.017815220328
          -0.0029665219992 1.4983798297 -0.020656777119 -0.0011810265585 1.4966228516 -0.021637146168
          -0.0021226111713 1.4994904302 -0.018162424757 -0.0045813385151 1.4992433878 -0.018090494202
          -0.0054213590829 1.495670904 -0.021589701215 -0.0036057220116 1.4967425379 -0.020552662043
          -0.0085028784895 1.5018577089 -0.01762464516 -0.00084410594734 1.4937186264 -0.021742413409
          -0.0067698813388 1.5002797832 -0.015330204227 -0.0064767020272 1.4997746964 -0.015508919283
          -0.0062263127043 1.4992203437 -0.015202025011 -0.0062553870046 1.4984330788 -0.014841997343
          -0.006244549863 1.4989701211 -0.015924097954 -0.0061921645248 1.4986550409 -0.01603033053
          -0.0061942980797 1.4974185855 -0.014818483195 -0.0061625363881 1.4976235215 -0.015153123486
          -0.0059461761266 1.4975795609 -0.015464474975 -0.0057113923525 1.4973510125 -0.015350053741
          -0.005725947498 1.4997965212 -0.015421513829 -0.0059152846835 1.4991072162 -0.015462998673
          -0.0056412595609 1.4986693961 -0.015626216985 -0.0058976044748 1.4986856156 -0.015722747536
          -0.0059099991033 1.4984659081 -0.015760828559 -0.0058500107395 1.4981707991 -0.015801492117
          -0.0059020213101 1.4977420306 -0.015759305379 -0.0061385458675 1.4970819819 -0.015610289355
          -0.0058824615867 1.49687972 -0.01543802187 -0.0060451926639 1.496938917 -0.015399231378
          -0.0053177620801 1.4995973515 -0.015702878741 -0.0049962711723 1.4994820953 -0.016468439968
          -0.0055110970966 1.4991182133 -0.01631986643 -0.0056315715449 1.4987781769 -0.016255828057
          -0.0055811315541 1.4983730012 -0.016206357526 -0.0056225304232 1.4981725561 -0.016091801845
          -0.0055141525472 1.4978196618 -0.016277862329 -0.0056658007774 1.4975379884 -0.016345683659
          -0.0061078832106 1.4972954024 -0.016414392886 -0.0058461857886 1.4967422675 -0.015711943249
          -0.005185234375 1.4995054395 -0.016432105399 -0.0051703368671 1.4995169449 -0.016581218613
          -0.0052008889105 1.4991565914 -0.016707435243 -0.0052609430844 1.4987759149 -0.016693930519
          -0.0052442451899 1.4983226197 -0.016697470987 -0.0052676887922 1.4980036692 -0.016676394173
          -0.0052611265968 1.4978808873 -0.016661099478 -0.0053150807887 1.4975781794 -0.016720012544
          -0.0053694068877 1.4972915835 -0.016550225759 -0.005363946141 1.4966476454 -0.01641890976
          -0.0050293871875 1.4997893416 -0.016725909047 -0.0049100583904 1.4996505368 -0.016973288488
          -0.0047516184967 1.4992502544 -0.017182935313 -0.0049340867348 1.498781147 -0.017141510777
          -0.0049340000452 1.4984120989 -0.017128824017 -0.0049704190815 1.4981286335 -0.017126678432
          -0.0049273880484 1.4978561614 -0.017112436624 -0.0051541018878 1.4976734264 -0.017162468467
          -0.0050102504138 1.4974313201 -0.016957687737 -0.0048385068496 1.4969314057 -0.016652921724
          -0.0047290417369 1.4997717811 -0.017084752004 -0.0041203855807 1.4995805076 -0.017690956916
          -0.0045120424824 1.4991419424 -0.017640977197 -0.0044592478198 1.498705652 -0.017606230168
          -0.0042326481512 1.498451491 -0.017520610776 -0.0050160019441 1.4981412003 -0.017502719592
          -0.0047771095234 1.4977041169 -0.01756991412 -0.0047613675706 1.497553594 -0.017613491428
          -0.0051291988298 1.4973564333 -0.017657222729 -0.0045071392839 1.4968971901 -0.017027435316
          -0.0039165805668 1.4999175702 -0.018106447492 -0.003361179161 1.4996744756 -0.018252799094
          -0.0038149145888 1.4991038747 -0.01817606658 -0.0040963423411 1.4987870644 -0.018014935886
          -0.0037788651732 1.4983855892 -0.017907992689 -0.0048052271162 1.4980931135 -0.017910426626
          -0.0045284770667 1.4978404945 -0.018014608466 -0.0047853264909 1.4975093776 -0.018157145704
          -0.0052928326703 1.4974675539 -0.018226222731 -0.0046879702978 1.4970659594 -0.018080803593
          -0.0040085052079 1.5001897097 -0.018223216455 -0.0039770107299 1.4994741751 -0.018492191912
          -0.0042045278576 1.4988487633 -0.018793034396 -0.0045050035508 1.49898406 -0.018656540333
          -0.0040766126182 1.4986074923 -0.018482688462 -0.0039184235245 1.4983090908 -0.01840519423
          -0.003442651336 1.498028253 -0.018644762428 -0.0037493996684 1.4972619718 -0.018743048159
          -0.0040120777142 1.497245986 -0.018453415903 -0.0040038671291 1.4973804398 -0.018207283401
          -0.0045198745168 1.4987304785 -0.019143679266 -0.0039262483081 1.4993840648 -0.019224902728
          -0.0037489021386 1.4995992643 -0.019078469833 -0.0027986182533 1.498794041 -0.019116650333
          -0.0025913156051 1.4980490483 -0.018412303253 -0.004742318865 1.4977336007 -0.018454578041
          -0.0044732121214 1.4978587623 -0.019092320476 -0.0035956902515 1.4980043393 -0.019022655694
          -0.0034079003396 1.4971527163 -0.019175762828 -0.0028178393294 1.4958265327 -0.019138204849
          -0.0017624129887 1.4999229837 -0.019199977287 -0.0048391727258 1.4986586945 -0.018872697734
          -0.0014282523318 1.4992430517 -0.019993708528 -0.0053119514913 1.4991046859 -0.019866006593
          -0.0018249673394 1.4963304244 -0.018805658742 -0.005002946092 1.4959652637 -0.018824064984
          -0.0013054088392 1.4981458443 -0.019870179744 -0.0052849801715 1.4976791616 -0.019998063808
          -0.0018995757086 1.4963998694 -0.018853136416 -0.0050854463261 1.4972514099 -0.019138922804
          -0.0072839664867 1.5011251873 -0.015098054713 -0.0056550489135 1.5001264999 -0.015786256729
          -0.0066761350137 1.5000161346 -0.015201359396 -0.0057595388292 1.4986540458 -0.014811829873
          -0.0061239146628 1.499023409 -0.015406089505 -0.0061543956658 1.4986350744 -0.015409938961
          -0.0066788389701 1.4976963129 -0.01483918502 -0.0057473549361 1.4984531303 -0.015240891792
          -0.0067476210067 1.4978599119 -0.015761788462 -0.0050206681506 1.4983636389 -0.015079818471
          -0.0055482953922 1.4997021087 -0.015787509716 -0.0059547088052 1.5003238703 -0.015889957303
          -0.0057417783564 1.4995502515 -0.01584548719 -0.0059198105807 1.4993818377 -0.015799974474
          -0.0058813812941 1.4988036126 -0.015731033125 -0.005899255151 1.4984558507 -0.015711571676
          -0.0058670263815 1.4984850645 -0.015795558427 -0.0060554263896 1.4979616631 -0.015817833681
          -0.0057926877082 1.4981187781 -0.01586821145 -0.0062761038725 1.4968999463 -0.015695543545
          -0.0052848031112 1.5001214101 -0.016127478493 -0.0052414817522 1.4999142511 -0.016266522146
          -0.0054648724304 1.4996570355 -0.016155193771 -0.0055646912612 1.4993139975 -0.01622309871
          -0.005530333376 1.4989477958 -0.016210582871 -0.0055602092694 1.4986642599 -0.016152712814
          -0.0055979558697 1.4983657456 -0.016188379679 -0.0056860794116 1.4980779186 -0.0161464024
          -0.0059351284114 1.4977181321 -0.016254214447 -0.005908792547 1.4972500385 -0.01608369058
          -0.0046792999907 1.4998238683 -0.016724199934 -0.00505365349 1.4999531773 -0.016610887544
          -0.0051517531295 1.4995743672 -0.016673474729 -0.0052262938681 1.4991866059 -0.016714160749
          -0.0052115848214 1.4988668195 -0.016610180738 -0.0052023264307 1.4985702188 -0.016635908356
          -0.0053344941444 1.4982655155 -0.01663606004 -0.0053851470893 1.4979978547 -0.016669616344
          -0.0054933615899 1.4977431599 -0.016596472127 -0.0058235691625 1.4969911133 -0.016682885766
          -0.0046893646153 1.5006265021 -0.017279447741 -0.0048611083143 1.5000009986 -0.017011938021
          -0.0048828787423 1.4996094132 -0.017040270288 -0.0048270651646 1.4992846912 -0.017072571201
          -0.0048915472052 1.4988956817 -0.017109146956 -0.0049628942517 1.4986296355 -0.017121839172
          -0.005076476375 1.4983352642 -0.017067984869 -0.0050100412707 1.4980272056 -0.017024180849
          -0.0050435174631 1.4977912864 -0.01699093098 -0.00522679561 1.4977454664 -0.017249720151