<?xml version="1.0"?>
<VTKFile type="UnstructuredGrid" version="0.1" byte_order="LittleEndian" compressor="vtkZLibDataCompressor">
  <UnstructuredGrid>
    <FieldData>
      <DataArray type="Float64" Name="TIME" NumberOfTuples="1" format="ascii" RangeMin="0.29461244201" RangeMax="0.29461244201">
        0.29461244201
      </DataArray>
    </FieldData>
    <Piece NumberOfPoints="1000" NumberOfCells="0">
      <PointData>
        <DataArray type="Float64" Name="Damage" format="ascii" RangeMin="0" RangeMax="0.49719101124">
          0 0 0 0 0 0
          0 0 0 0 0 0.027932960894
          0 0 0 0 0 0
          0.027932960894 0 0 0.055084745763 0.071428571429 0.040345821326
          0.014164305949 0.012987012987 0.040345821326 0.071428571429 0.055084745763 0
          0 0.067669172932 0.11239193084 0.1074168798 0.037688442211 0.034562211982
          0.1074168798 0.11239193084 0.067669172932 0 0 0.074349442379
          0.16147308782 0.16834170854 0.12376237624 0.11286681716 0.16834170854 0.16147308782
          0.074349442379 0 0 0.084459459459 0.2 0.25806451613
          0.33860045147 0.39211618257 0.25806451613 0.2 0.084459459459 0
          0 0.093984962406 0.25360230548 0.36061381074 0.41959798995 0.46774193548
          0.36061381074 0.25360230548 0.093984962406 0 0 0.10593220339
          0.31493506494 0.40057636888 0.4447592068 0.49090909091 0.40057636888 0.31493506494
          0.10593220339 0 0 0.16759776536 0.3686440678 0.43984962406
          0.44609665428 0.49662162162 0.43984962406 0.3686440678 0.16759776536 0
          0 0.1677852349 0.36734693878 0.43891402715 0.44642857143 0.49593495935
          0.43891402715 0.36734693878 0.1677852349 0 0 0
          0 0 0 0 0 0
          0 0 0 0.027906976744 0 0
          0 0 0 0 0.027906976744 0
          0 0.056338028169 0.072776280323 0.040669856459 0.014117647059 0.012931034483
          0.040669856459 0.072776280323 0.056338028169 0 0 0.06875
          0.11483253589 0.10828025478 0.0375782881 0.034416826004 0.10828025478 0.11483253589
          0.06875 0 0 0.074303405573 0.16235294118 0.16910229645
          0.12371134021 0.11257035647 0.16910229645 0.16235294118 0.074303405573 0
          0 0.084269662921 0.20043103448 0.25812619503 0.33771106942 0.39242685026
          0.25812619503 0.20043103448 0.084269662921 0 0 0.09375
          0.25358851675 0.36093418259 0.41962421712 0.46845124283 0.36093418259 0.25358851675
          0.09375 0 0 0.10563380282 0.3153638814 0.4019138756
          0.44470588235 0.49137931034 0.4019138756 0.3153638814 0.10563380282 0
          0 0.16744186047 0.36971830986 0.440625 0.44582043344 0.49719101124
          0.440625 0.36971830986 0.16744186047 0 0 0.16759776536
          0.3686440678 0.43984962406 0.44609665428 0.49662162162 0.43984962406 0.3686440678
          0.16759776536 0 0 0 0 0
          0 0 0 0 0 0
          0 0.024647887324 0 0 0 0
          0 0 0.024647887324 0 0 0.051212938005
          0.06875 0.038817005545 0.012635379061 0.011666666667 0.038817005545 0.06875
          0.051212938005 0 0 0.064593301435 0.10905730129 0.10491803279
          0.036858974359 0.034023668639 0.10491803279 0.10905730129 0.064593301435 0
          0 0.070588235294 0.15523465704 0.16506410256 0.12283464567 0.11271676301
          0.16506410256 0.15523465704 0.070588235294 0 0 0.081896551724
          0.19333333333 0.25443786982 0.33959537572 0.38985313752 0.25443786982 0.19333333333
          0.081896551724 0 0 0.093301435407 0.24768946396 0.35573770492
          0.41987179487 0.46449704142 0.35573770492 0.24768946396 0.093301435407 0
          0 0.10781671159 0.30833333333 0.39556377079 0.4440433213 0.48666666667
          0.39556377079 0.30833333333 0.10781671159 0 0 0.16197183099
          0.35579514825 0.43062200957 0.44470588235 0.49137931034 0.43062200957 0.35579514825
          0.16197183099 0 0 0.16101694915 0.3538961039 0.42939481268
          0.4447592068 0.49090909091 0.42939481268 0.3538961039 0.16101694915 0
          0 0 0 0 0 0
          0 0 0 0 0 0.025
          0 0 0 0 0 0
          0.025 0 0 0.05023923445 0.068391866913 0.039344262295
          0.012820512821 0.011834319527 0.039344262295 0.068391866913 0.05023923445 0
          0 0.063694267516 0.10819672131 0.10465116279 0.036984352774 0.034120734908
          0.10465116279 0.10819672131 0.063694267516 0 0 0.070981210856
          0.15544871795 0.16500711238 0.12290502793 0.11282051282 0.16500711238 0.15544871795
          0.070981210856 0 0 0.082217973231 0.19378698225 0.25459317585
          0.33974358974 0.38981042654 0.25459317585 0.19378698225 0.082217973231 0
          0 0.093418259023 0.24918032787 0.35610465116 0.41963015647 0.46456692913
          0.35610465116 0.24918032787 0.093418259023 0 0 0.10765550239
          0.30868761553 0.39508196721 0.44391025641 0.48668639053 0.39508196721 0.30868761553
          0.10765550239 0 0 0.1625 0.35645933014 0.43099787686
          0.44467640919 0.4913957935 0.43099787686 0.35645933014 0.1625 0
          0 0.16165413534 0.35446685879 0.42966751918 0.44472361809 0.49078341014
          0.42966751918 0.35446685879 0.16165413534 0 0 0
          0 0 0 0 0 0
          0 0 0 0.02786377709 0 0
          0 0 0 0 0.02786377709 0
          0 0.054117647059 0.070397111913 0.040064102564 0.014173228346 0.013005780347
          0.040064102564 0.070397111913 0.054117647059 0 0 0.066805845511
          0.11057692308 0.106685633 0.037709497207 0.034615384615 0.106685633 0.11057692308
          0.066805845511 0 0 0.074226804124 0.16062992126 0.16759776536
          0.12362637363 0.11292346299 0.16759776536 0.16062992126 0.074226804124 0
          0 0.084427767355 0.19942196532 0.25769230769 0.33877038896 0.39145496536
          0.25769230769 0.19942196532 0.084427767355 0 0 0.093945720251
          0.25320512821 0.35988620199 0.41899441341 0.46666666667 0.35988620199 0.25320512821
          0.093945720251 0 0 0.10588235294 0.31407942238 0.39903846154
          0.44409448819 0.48988439306 0.39903846154 0.31407942238 0.10588235294 0
          0 0.16718266254 0.36705882353 0.43841336117 0.44536082474 0.49530956848
          0.43841336117 0.36705882353 0.16718266254 0 0 0.16728624535
          0.36543909348 0.43718592965 0.44554455446 0.49435665914 0.43718592965 0.36543909348
          0.16728624535 0 0 0 0 0
          0 0 0 0 0 0
          0 0.025280898876 0 0 0 0
          0 0 0.025280898876 0 0 0.049568965517
          0.066666666667 0.038461538462 0.013005780347 0.012016021362 0.038461538462 0.066666666667
          0.049568965517 0 0 0.06309751434 0.1050295858 0.10367454068
          0.037179487179 0.034360189573 0.10367454068 0.1050295858 0.06309751434 0
          0 0.071294559099 0.15462427746 0.1641025641 0.12296110414 0.11316397229
          0.1641025641 0.15462427746 0.071294559099 0 0 0.082616179002
          0.19359145527 0.25473933649 0.34064665127 0.38930481283 0.25473933649 0.19359145527
          0.082616179002 0 0 0.093690248566 0.24852071006 0.35564304462
          0.41923076923 0.46327014218 0.35564304462 0.24852071006 0.093690248566 0
          0 0.10775862069 0.30833333333 0.39349112426 0.4436416185 0.48598130841
          0.39349112426 0.30833333333 0.10775862069 0 0 0.16292134831
          0.35560344828 0.43021032505 0.44465290807 0.49053356282 0.43021032505 0.35560344828
          0.16292134831 0 0 0.16216216216 0.35324675325 0.42857142857
          0.44469525959 0.48962655602 0.42857142857 0.35324675325 0.16216216216 0
          0 0 0 0 0 0
          0 0 0 0 0 0.025
          0 0 0 0 0 0
          0.025 0 0 0.05023923445 0.068391866913 0.039344262295
          0.012820512821 0.011834319527 0.039344262295 0.068391866913 0.05023923445 0
          0 0.063694267516 0.10819672131 0.10465116279 0.036984352774 0.034120734908
          0.10465116279 0.10819672131 0.063694267516 0 0 0.070981210856
          0.15544871795 0.16500711238 0.12290502793 0.11282051282 0.16500711238 0.15544871795
          0.070981210856 0 0 0.082217973231 0.19378698225 0.25459317585
          0.33974358974 0.38981042654 0.25459317585 0.19378698225 0.082217973231 0
          0 0.093418259023 0.24918032787 0.35610465116 0.41963015647 0.46456692913
          0.35610465116 0.24918032787 0.093418259023 0 0 0.10765550239
          0.30868761553 0.39508196721 0.44391025641 0.48668639053 0.39508196721 0.30868761553
          0.10765550239 0 0 0.1625 0.35645933014 0.43099787686
          0.44467640919 0.4913957935 0.43099787686 0.35645933014 0.1625 0
          0 0.16165413534 0.35446685879 0.42966751918 0.44472361809 0.49078341014
          0.42966751918 0.35446685879 0.16165413534 0 0 0
          0 0 0 0 0 0
          0 0 0 0.024647887324 0 0
          0 0 0 0 0.024647887324 0
          0 0.051212938005 0.06875 0.038817005545 0.012635379061 0.011666666667
          0.038817005545 0.06875 0.051212938005 0 0 0.064593301435
          0.10905730129 0.10491803279 0.036858974359 0.034023668639 0.10491803279 0.10905730129
          0.064593301435 0 0 0.070588235294 0.15523465704 0.16506410256
          0.12283464567 0.11271676301 0.16506410256 0.15523465704 0.070588235294 0
          0 0.081896551724 0.19333333333 0.25443786982 0.33959537572 0.38985313752
          0.25443786982 0.19333333333 0.081896551724 0 0 0.093301435407
          0.24768946396 0.35573770492 0.41987179487 0.46449704142 0.35573770492 0.24768946396
          0.093301435407 0 0 0.10781671159 0.30833333333 0.39556377079
          0.4440433213 0.48666666667 0.39556377079 0.30833333333 0.10781671159 0
          0 0.16197183099 0.35579514825 0.43062200957 0.44470588235 0.49137931034
          0.43062200957 0.35579514825 0.16197183099 0 0 0.16101694915
          0.3538961039 0.42939481268 0.4447592068 0.49090909091 0.42939481268 0.3538961039
          0.16101694915 0 0 0 0 0
          0 0 0 0 0 0
          0 0.027906976744 0 0 0 0
          0 0 0.027906976744 0 0 0.056338028169
          0.072776280323 0.040669856459 0.014117647059 0.012931034483 0.040669856459 0.072776280323
          0.056338028169 0 0 0.06875 0.11483253589 0.10828025478
          0.0375782881 0.034416826004 0.10828025478 0.11483253589 0.06875 0
          0 0.074303405573 0.16235294118 0.16910229645 0.12371134021 0.11257035647
          0.16910229645 0.16235294118 0.074303405573 0 0 0.084269662921
          0.20043103448 0.25812619503 0.33771106942 0.39242685026 0.25812619503 0.20043103448
          0.084269662921 0 0 0.09375 0.25358851675 0.36093418259
          0.41962421712 0.46845124283 0.36093418259 0.25358851675 0.09375 0
          0 0.10563380282 0.3153638814 0.4019138756 0.44470588235 0.49137931034
          0.4019138756 0.3153638814 0.10563380282 0 0 0.16744186047
          0.36971830986 0.440625 0.44582043344 0.49719101124 0.440625 0.36971830986
          0.16744186047 0 0 0.16759776536 0.3686440678 0.43984962406
          0.44609665428 0.49662162162 0.43984962406 0.3686440678 0.16759776536 0
          0 0 0 0 0 0
          0 0 0 0 0 0.027932960894
          0 0 0 0 0 0
          0.027932960894 0 0 0.055084745763 0.071428571429 0.040345821326
          0.014164305949 0.012987012987 0.040345821326 0.071428571429 0.055084745763 0
          0 0.067669172932 0.11239193084 0.1074168798 0.037688442211 0.034562211982
          0.1074168798 0.11239193084 0.067669172932 0 0 0.074349442379
          0.16147308782 0.16834170854 0.12376237624 0.11286681716 0.16834170854 0.16147308782
          0.074349442379 0 0 0.084459459459 0.2 0.25806451613
          0.33860045147 0.39211618257 0.25806451613 0.2 0.084459459459 0
          0 0.093984962406 0.25360230548 0.36061381074 0.41959798995 0.46774193548
          0.36061381074 0.25360230548 0.093984962406 0 0 0.10593220339
          0.31493506494 0.40057636888 0.4447592068 0.49090909091 0.40057636888 0.31493506494
          0.10593220339 0 0 0.16759776536 0.3686440678 0.43984962406
          0.44609665428 0.49662162162 0.43984962406 0.3686440678 0.16759776536 0
          0 0.1677852349 0.36734693878 0.43891402715 0.44642857143 0.49593495935
          0.43891402715 0.36734693878 0.1677852349 0
        </DataArray>
        <DataArray type="Float64" Name="Displacement" NumberOfComponents="3" format="ascii" RangeMin="1.1680023042" RangeMax="1.1858137511">
          -0.011130752448 1.1789195678 -0.024540194732 -0.0087580161686 1.1774628918 -0.026897811882
          -0.0097057840972 1.176961621 -0.026667824236 -0.0097562284206 1.1763947861 -0.026417697259
          -0.0098675532834 1.1759202445 -0.026157620098 -0.0097234344645 1.1744243471 -0.025579801024
          -0.0099089264719 1.1750187727 -0.026399456464 -0.0099410948996 1.1745178613 -0.026570450526
          -0.010832279354 1.173912856 -0.026865422652 -0.0082065466464 1.17446803 -0.02459582177
          -0.0084759841854 1.1760284923 -0.025126202013 -0.0091479829693 1.1751433993 -0.025194589496
          -0.0095582054673 1.1750117128 -0.02480373549 -0.009533891049 1.1742587262 -0.024380050933
          -0.0093334829539 1.1738748027 -0.024530455834 -0.0093856980261 1.1732677832 -0.024745629235
          -0.0090910533614 1.1726599241 -0.024324571827 -0.0090536330036 1.1724605142 -0.024697412046
          -0.0094815876025 1.1718340095 -0.025139927911 -0.0099426351124 1.1715914887 -0.025132762414
          -0.0087701594524 1.1771996527 -0.025925581288 -0.0082477449951 1.1756742105 -0.026137109213
          -0.0079762297665 1.1747488416 -0.02589951172 -0.0087139064132 1.1747145257 -0.025582348418
          -0.0087924700767 1.1749101249 -0.026084429474 -0.0088606368073 1.1736593605 -0.025433769871
          -0.0087389584226 1.1732928187 -0.02547321893 -0.0097459367874 1.1722402333 -0.025784624716
          -0.0094685773013 1.1722471958 -0.026034486883 -0.0088311549902 1.1727605619 -0.025730933232
          -0.008458318997 1.1762445752 -0.025742362661 -0.0075483994783 1.1755395265 -0.027451151585
          -0.0082506769058 1.1756094354 -0.026251118837 -0.0083103923558 1.1749435474 -0.026130848969
          -0.0086108431364 1.174042907 -0.026103079438 -0.0086342817 1.1738401826 -0.026125174044
          -0.0084257897007 1.173705214 -0.026243915813 -0.00835026276 1.1732479516 -0.026139831981
          -0.0090617792019 1.1720122039 -0.027321870761 -0.008215862374 1.1718233834 -0.025641459191
          -0.0090822043368 1.1772387025 -0.025659422516 -0.0074130617136 1.1751601579 -0.027453547445
          -0.0072200319705 1.1753916075 -0.027427668885 -0.0079017371258 1.1749798823 -0.026940720726
          -0.0076459991102 1.1742878007 -0.027327478352 -0.0082611804965 1.1746557216 -0.027199243389
          -0.0077517262693 1.1734336697 -0.02688368767 -0.0084388792695 1.1729811187 -0.027359668821
          -0.0081872219687 1.1718546849 -0.027318010691 -0.0066683435385 1.172745521 -0.025638021213
          -0.0077505249063 1.1775505658 -0.026288997978 -0.0079470892149 1.1760690476 -0.027898113967
          -0.007410644986 1.1754990651 -0.027775809421 -0.0075536676987 1.1751135659 -0.027201876415
          -0.0091122051765 1.173864951 -0.029829956216 -0.0054726942472 1.1734863625 -0.030004040817
          -0.0071078377835 1.1737286158 -0.027358656757 -0.007334961043 1.1731398066 -0.027663789789
          -0.0066286005354 1.1726061157 -0.027860281192 -0.0070619317845 1.1731345804 -0.026282353551
          -0.0058203897532 1.1759161712 -0.029204522506 -0.0068404085157 1.1754776201 -0.029231061066
          -0.0061860377136 1.1749459346 -0.02889063871 -0.0060107388376 1.1749747689 -0.028229646259
          -0.0068613590013 1.1757466412 -0.026474195689 -0.0070843722025 1.1752841854 -0.026501756884
          -0.0077867469157 1.1735903357 -0.028163876722 -0.0075744473102 1.1725288261 -0.028845580478
          -0.006902133035 1.172083704 -0.029218803301 -0.0080110866792 1.171481466 -0.029240740962
          -0.0064914889096 1.1773364426 -0.029351805698 -0.0077543914704 1.1753591289 -0.028110668523
          -0.0066357763741 1.1759175825 -0.028528256016 -0.0077958046709 1.1753621217 -0.029052520247
          -0.0054127665539 1.175900144 -0.027410692983 -0.0073915940051 1.1754809631 -0.027417309792
          -0.0049516408798 1.1739065286 -0.02906240683 -0.0060927486266 1.1734783502 -0.028545338859
          -0.0050444371475 1.1718786148 -0.028162334054 -0.0062300465297 1.1728956215 -0.029383964111
          -0.0023673643986 1.1760031764 -0.033122763867 -0.0076339854773 1.1774466426 -0.027919729458
          -0.010453270898 1.1733803122 -0.030093179245 -0.0060982699586 1.1733834054 -0.030106326413
          -0.0024988825749 1.1765321302 -0.026634281378 -0.0089951330401 1.1759477528 -0.026507553631
          -0.0057605163864 1.1718357772 -0.029914312762 -0.0013644069486 1.170877918 -0.03001297139
          -0.0040107766697 1.1740394972 -0.027757764353 -0.0094363954502 1.1716866159 -0.033064514104
          -0.0071574597232 1.1717622784 -0.031474219088 -0.0072809289703 1.1798122478 -0.025821049041
          -0.0045616646628 1.1753118581 -0.028667868652 -0.0061890687896 1.1707893416 -0.033692145453
          -0.0082456995451 1.1739091328 -0.031073033518 -0.0027502747273 1.173103293 -0.031248799902
          -0.0044731016696 1.1693103038 -0.033769936755 -0.0061693527321 1.1729642504 -0.028574746798
          -0.0033030388056 1.1765546486 -0.0255679754 -0.0035805407522 1.1675809857 -0.031164148591
          -0.0080003828259 1.1763346393 -0.024794159555 -0.010568084081 1.1769430085 -0.024890169265
          -0.00999411635 1.1754572239 -0.024023665635 -0.0099626545902 1.1749532475 -0.024045590405
          -0.0099788803635 1.1746667968 -0.024122437541 -0.0098204695073 1.174141262 -0.024216271782
          -0.0095810720075 1.1734519984 -0.023904952029 -0.0096962247138 1.172899039 -0.023831457187
          -0.0089957634197 1.1735179178 -0.024819821124 -0.011626672413 1.1719560064 -0.024803862732
          -0.010576606684 1.1798536857 -0.026020664681 -0.0093010555204 1.1767155107 -0.024645839117
          -0.0089197587875 1.1754086535 -0.025064412203 -0.0092720294644 1.1750921494 -0.024709270553
          -0.0091894143145 1.1745071274 -0.024778173678 -0.0093559698247 1.1739007931 -0.024633407257
          -0.0093067598997 1.1737036118 -0.024688774135 -0.0097300441738 1.1729702292 -0.025002858927
          -0.0093543063013 1.1732865178 -0.024526498824 -0.0080218837969 1.1755397582 -0.026021741147
          -0.0070774197723 1.1772916909 -0.027570766344 -0.0081608600291 1.1763177979 -0.025816239489
          -0.008452088925 1.1762197839 -0.026095537618 -0.0086710036793 1.1752426003 -0.025565369083
          -0.0088009698595 1.1748836728 -0.025486172093 -0.0088162319944 1.1744899592 -0.025569109721
          -0.0089268940303 1.1737541092 -0.025409362992 -0.0091801538409 1.1737569484 -0.025959996717
          -0.0095148929746 1.1728700905 -0.025713291754 -0.010598674573 1.1728687212 -0.027419105161
          -0.007746373514 1.1772410193 -0.026819194949 -0.0079451591641 1.1764054849 -0.026493060738
          -0.0082790334593 1.1761396525 -0.026363495267 -0.0086117170048 1.1752512206 -0.025589040197
          -0.0082927119864 1.1751149012 -0.026363610803 -0.0083517584722 1.1746384719 -0.02638652207
          -0.0080717966802 1.1737521867 -0.025500114675 -0.0083934669712 1.1736813898 -0.026339795851
          -0.0087077398955 1.1729138794 -0.026414411332 -0.0088666581464 1.1728637175 -0.026779959602
          -0.0075147463811 1.1781325827 -0.027307075706 -0.0077328151669 1.1764445084 -0.026904295246
          -0.0081643662965 1.1761091694 -0.026539099565 -0.0076934410002 1.1755913242 -0.027440891534
          -0.0079830796481 1.1749381008 -0.027340781208 -0.0077404651752 1.1745051407 -0.027132632493
          -0.0079555107838 1.1740913356 -0.027408331993 -0.0075507662885 1.173646805 -0.026486410595
          -0.0080071922201 1.1730017433 -0.026783688775 -0.0081564725299 1.1737186066 -0.027248626525
          -0.0074366602845 1.1765501531 -0.027922444399 -0.007513619882 1.1761796793 -0.027976287821
          -0.0073310454219 1.1760194002 -0.02789964945 -0.0076296437096 1.1755131527 -0.027780962094
          -0.0068975245323 1.1751849313 -0.027407379633 -0.0078920156883 1.1746462466 -0.027382793165
          -0.0071294004026 1.1740425705 -0.027769202237 -0.0074099443966 1.1735748113 -0.027825165723
          -0.0072557799666 1.1727399127 -0.027899411965 -0.0072932066098 1.1722364241 -0.027858822648
          -0.0072474553012 1.1766042588 -0.027869781559 -0.0069463473935 1.1762645574 -0.028411145633
          -0.0060916693768 1.1761944879 -0.028430865569 -0.0054408033434 1.1757556775 -0.027881519036
          -0.0065680098218 1.175279403 -0.027912369918 -0.0073281973185 1.1746864948 -0.02801098782
          -0.0082991452646 1.174289642 -0.027882159879 -0.0076058693077 1.1737600293 -0.02841142538
          -0.006847179324 1.1728189257 -0.028338775976 -0.0064468547571 1.1721763609 -0.027792046406
          -0.0082335597018 1.1766220641 -0.026610513473 -0.0068991843078 1.1763019136 -0.028778098216
          -0.0061034437896 1.1754099447 -0.029687749242 -0.0068058250828 1.1757458288 -0.029279716115
          -0.0084668981629 1.176107535 -0.02972963719 -0.0041943111277 1.175666068 -0.029735783529
          -0.0059522692481 1.1743321676 -0.029230048224 -0.0066591972542 1.1729606324 -0.029665181655
          -0.0058683804002 1.1728783382 -0.028746939476 -0.0044673461013 1.1721562644 -0.02662604672
          -0.0063374465584 1.1767454924 -0.030589296525 -0.007606672527 1.1761987718 -0.029655710924
          -0.0063077771925 1.1767665914 -0.029518588693 -0.0072754881086 1.1766472717 -0.028859286564
          -0.0073784978739 1.1756827219 -0.029891101833 -0.004380030626 1.1752285078 -0.029863354137
          -0.0044228210102 1.1751670866 -0.028836192936 -0.0053980553537 1.1742873341 -0.029500655146
          -0.0040984729365 1.1726983072 -0.029646705045 -0.0055260519882 1.1723586806 -0.030624123961
          -0.0068819617378 1.1723050289 -0.035248955795 -0.005813006673 1.1756913276 -0.031149850269
          -0.007795398811 1.1759177819 -0.031241979561 -0.0042803627083 1.1753411179 -0.030825579365
          -0.0085781092558 1.1754900763 -0.030548929443 -0.0019587439426 1.1749262993 -0.030623617487
          -0.0065082621474 1.1737906439 -0.030901996668 -0.0029434113548 1.1733377923 -0.031167634384
          -0.0050386854692 1.1721978007 -0.031163259609 -0.0037445136428 1.1676454224 -0.035169249803
          -0.0083525096747 1.1773015394 -0.025218875772 -0.010292639545 1.1776248598 -0.024630851551
          -0.0094436600987 1.1763716325 -0.024451558852 -0.010191476185 1.1765348333 -0.02476418684
          -0.0099192178744 1.1752006698 -0.023663061041 -0.0097506167801 1.1747975911 -0.024062044925
          -0.0094109384913 1.1750034024 -0.024648678433 -0.010175167073 1.1739105204 -0.024401366914
          -0.0094131117927 1.1742386475 -0.02448798065 -0.011347949148 1.1728310314 -0.025155881658
          -0.0097226256423 1.1789501608 -0.025306604968 -0.0089372678768 1.1774202604 -0.025504369127
          -0.0093663095376 1.1772475952 -0.025533984386 -0.0092868599645 1.1762594551 -0.025152337492
          -0.0092644960256 1.1753783416 -0.024839402181 -0.009344837949 1.1749759284 -0.02489505447
          -0.0094110769744 1.1747270711 -0.025112130463 -0.0092710640709 1.1748178246 -0.025478166585
          -0.0097487428679 1.1740092915 -0.025461257001 -0.0089473286087 1.1744945897 -0.025238368277
          -0.0084935654633 1.1772770523 -0.025810813612 -0.0082816497679 1.1772945165 -0.026077343531
          -0.0087750871402 1.1768298007 -0.025797807443 -0.0087642312501 1.1761138791 -0.025546799126
          -0.0087945140483 1.175740266 -0.025611158123 -0.0088001394709 1.1752059994 -0.025672350154
          -0.0089557699528 1.1746862969 -0.025510001228 -0.0088951672048 1.1743437687 -0.025706033087
          -0.009375644177 1.1738625809 -0.026015931205 -0.0091697566665 1.1728637396 -0.025746446815
          -0.0084290475536 1.1774012955 -0.02623102921 -0.0086130397596 1.1771607545 -0.026281964597
          -0.0083652977132 1.1766975483 -0.026316413698 -0.0082940816783 1.1762901177 -0.026386185941
          -0.0082689499038 1.1758926981 -0.026423804056 -0.0083953126661 1.1753190061 -0.026440465454
          -0.0084297163993 1.1748143437 -0.026350399329 -0.0083168718039 1.1742611848 -0.026269074517
          -0.0081900977754 1.1737138382 -0.026303806591 -0.0082672741022 1.1729713945 -0.026129739899
          -0.0079401957711 1.1776090337 -0.026969600289 -0.0079054902984 1.1769304962 -0.027029978609
          -0.0075911047318 1.176792208 -0.027202085901 -0.0077987301685 1.1762952391 -0.027176873349
          -0.0077939405728 1.1758772547 -0.027136626678 -0.0079472793103 1.1753834663 -0.02714708391
          -0.0079454489172 1.1748170596 -0.027136142826 -0.0081444332895 1.1743276016 -0.027147427506
          -0.0078361913673 1.1734798958 -0.02702118786 -0.00774392472 1.1731727329 -0.026896027522
          -0.0075266162293 1.17720723 -0.027684124955 -0.0073066093065 1.1770125661 -0.027804731657
          -0.0074887962864 1.1765790614 -0.027772363454 -0.0074852395489 1.1763644148 -0.027843972456
          -0.007318726647 1.1759091134 -0.027711238542 -0.0073012394034 1.1754213261 -0.027764119766
          -0.0073191721196 1.1748953598 -0.027805132337 -0.0071919281329 1.1741295618 -0.027712088252
          -0.0073984186681 1.173582657 -0.027745266132 -0.007199488521 1.1728007404 -0.027569602013
          -0.0075942420292 1.1769999408 -0.02802945163 -0.0071268193747 1.1768163082 -0.028577960293
          -0.0075673536616 1.1764084832 -0.028365495561 -0.0069054495813 1.1762609621 -0.028447078425
          -0.0061942728785 1.1759948255 -0.027886632346 -0.0075401257319 1.1755217292 -0.02786239529
          -0.0068475935269 1.1748140154 -0.028408713607 -0.0061882701233 1.1739395053 -0.028326254517
          -0.0066482562576 1.1733910939 -0.028545381718 -0.0061060241518 1.1725705278 -0.027922013612
          -0.0065351984427 1.1773431047 -0.02925558152 -0.0071131324922 1.1769593788 -0.02881830191
          -0.0068065287458 1.1765352887 -0.029046693136 -0.007386948275 1.1760510748 -0.029490094056
          -0.0074359506434 1.1766929388 -0.029003618218 -0.0052238401801 1.1761777566 -0.029113679604
          -0.0053331732453 1.1745996354 -0.029413548325 -0.0059948709371 1.1741008468 -0.028977861107
          -0.0055902858871 1.1735305473 -0.028765570263 -0.0061797116832 1.1728695457 -0.029151488508
          -0.0062813315233 1.1771137485 -0.029807237941 -0.0062002049012 1.1766177164 -0.030212102246
          -0.0074787180591 1.1759505102 -0.029816391444 -0.0067374108768 1.1759731403 -0.029600323165
          -0.0077987540115 1.1770793545 -0.029699173191 -0.0037220983662 1.1766950725 -0.029728616863
          -0.0049197821701 1.1745600509 -0.029570526295 -0.0042617039708 1.1734639836 -0.029807133596
          -0.0055317935869 1.1731474212 -0.030221279067 -0.0054582690293 1.1726731072 -0.029783689163
          -0.012016847298 1.1734840646 -0.029378363312 -0.0046009142132 1.1775105021 -0.031604626841
          -0.0050670468972 1.1747495934 -0.032454257786 -0.010667785942 1.1774397037 -0.031638121587
          -0.007676198567 1.1773981723 -0.030053723928 -0.0029220027403 1.1770126039 -0.030035198316
          3.7071848174e-06 1.1760043564 -0.03163621514 -0.0056451504664 1.1723288858 -0.03237537343
          -0.0060966196681 1.1741170013 -0.031578958987 0.0011867232029 1.168976879 -0.029353780131
          -0.0095261276009 1.1780913166 -0.023985863147 -0.0095273351372 1.1772241748 -0.024295863161
          -0.0097753121856 1.1771736689 -0.02432557304 -0.010023688997 1.1769613966 -0.024440143586
          -0.0098994813685 1.1763084624 -0.024368899276 -0.0097217781478 1.1757271989 -0.024306456189
          -0.0096238381197 1.1754708113 -0.024399847775 -0.0098777009147 1.1746810358 -0.024255525674
          -0.010219812538 1.1737502305 -0.024204839158 -0.010122884886 1.173698815 -0.023922582581
          -0.0091473894624 1.1776474941 -0.02453432533 -0.008950719001 1.1776759142 -0.02543926134
          -0.0092588379734 1.177310733 -0.025146941621 -0.0093698060528 1.176867219 -0.025073691842
          -0.0093464738579 1.1763157729 -0.025040660173 -0.0093312530934 1.1758400124 -0.025052008571
          -0.0093442112835 1.1753694167 -0.025063424293 -0.0094455941377 1.1749025216 -0.025119999277
          -0.0097613535861 1.1742239638 -0.025370351723 -0.0095940891641 1.1730940411 -0.024446162599
          -0.0086240627229 1.1781954039 -0.025724813075 -0.008571630842 1.1775661938 -0.025744628363
          -0.0086980051115 1.1773945083 -0.025702723213 -0.0088780273045 1.1769307137 -0.025726514732
          -0.0088323002788 1.1764058999 -0.025743531056 -0.0088617399543 1.1759186883 -0.025765015479
          -0.0088812791999 1.1754559923 -0.02570881793 -0.0089903753733 1.1749587227 -0.025662674114
          -0.0091336143074 1.1741460259 -0.025701332047 -0.0090409298953 1.1738380823 -0.025654291815
          -0.0085724838077 1.1784504426 -0.026537298437 -0.0080227501775 1.177718668 -0.026566543523
          -0.0082705323953 1.1773628469 -0.026510244504 -0.0083637368101 1.1770132511 -0.026333041422
          -0.0082887241244 1.176531408 -0.026476899257 -0.0083154729129 1.1759624861 -0.026408684064
          -0.0083673598133 1.175589014 -0.026300896083 -0.0084639273894 1.1749225764 -0.026467136998
          -0.0086722842264 1.1742735389 -0.02653453591 -0.0082516409793 1.1739772486 -0.026529142748
          -0.0079184783454 1.1779292701 -0.027057820402 -0.0077972117638 1.1776969342 -0.027155658492
          -0.0076972753174 1.177445717 -0.027240570902 -0.007746015125 1.1770232128 -0.027191988036
          -0.007822987627 1.1765784494 -0.027124530357 -0.0079361444297 1.1761328858 -0.027165500158
          -0.0080291217833 1.1755148723 -0.027119576694 -0.0080457843349 1.1749970318 -0.02718022579
          -0.0079189536439 1.1742640939 -0.027123288474 -0.007840522099 1.1735207212 -0.026999877457