<?xml version="1.0"?>
<VTKFile type="UnstructuredGrid" version="0.1" byte_order="LittleEndian" compressor="vtkZLibDataCompressor">
  <UnstructuredGrid>
    <FieldData>
      <DataArray type="Float64" Name="TIME" NumberOfTuples="1" format="ascii" RangeMin="0.22882753719" RangeMax="0.22882753719">
        0.22882753719
      </DataArray>
    </FieldData>
    <Piece NumberOfPoints="1000" NumberOfCells="0">
      <PointData>
        <DataArray type="Float64" Name="Damage" format="ascii" RangeMin="0" RangeMax="0.49719101124">
          0 0 0 0 0 0
          0 0 0 0 0 0.027932960894
          0 0 0 0 0 0
          0.027932960894 0 0 0.055084745763 0.071428571429 0.040345821326
          0.014164305949 0.012987012987 0.040345821326 0.071428571429 0.055084745763 0
          0 0.067669172932 0.11239193084 0.1074168798 0.037688442211 0.034562211982
          0.1074168798 0.11239193084 0.067669172932 0 0 0.074349442379
          0.16147308782 0.16834170854 0.12376237624 0.11286681716 0.16834170854 0.16147308782
          0.074349442379 0 0 0.084459459459 0.2 0.25806451613
          0.33860045147 0.39211618257 0.25806451613 0.2 0.084459459459 0
          0 0.093984962406 0.25360230548 0.36061381074 0.41959798995 0.46774193548
          0.36061381074 0.25360230548 0.093984962406 0 0 0.10593220339
          0.31493506494 0.40057636888 0.4447592068 0.49090909091 0.40057636888 0.31493506494
          0.10593220339 0 0 0.16759776536 0.3686440678 0.43984962406
          0.44609665428 0.49662162162 0.43984962406 0.3686440678 0.16759776536 0
          0 0.1677852349 0.36734693878 0.43891402715 0.44642857143 0.49593495935
          0.43891402715 0.36734693878 0.1677852349 0 0 0
          0 0 0 0 0 0
          0 0 0 0.027906976744 0 0
          0 0 0 0 0.027906976744 0
          0 0.056338028169 0.072776280323 0.040669856459 0.014117647059 0.012931034483
          0.040669856459 0.072776280323 0.056338028169 0 0 0.06875
          0.11483253589 0.10828025478 0.0375782881 0.034416826004 0.10828025478 0.11483253589
          0.06875 0 0 0.074303405573 0.16235294118 0.16910229645
          0.12371134021 0.11257035647 0.16910229645 0.16235294118 0.074303405573 0
          0 0.084269662921 0.20043103448 0.25812619503 0.33771106942 0.39242685026
          0.25812619503 0.20043103448 0.084269662921 0 0 0.09375
          0.25358851675 0.36093418259 0.41962421712 0.46845124283 0.36093418259 0.25358851675
          0.09375 0 0 0.10563380282 0.3153638814 0.4019138756
          0.44470588235 0.49137931034 0.4019138756 0.3153638814 0.10563380282 0
          0 0.16744186047 0.36971830986 0.440625 0.44582043344 0.49719101124
          0.440625 0.36971830986 0.16744186047 0 0 0.16759776536
          0.3686440678 0.43984962406 0.44609665428 0.49662162162 0.43984962406 0.3686440678
          0.16759776536 0 0 0 0 0
          0 0 0 0 0 0
          0 0.024647887324 0 0 0 0
          0 0 0.024647887324 0 0 0.051212938005
          0.06875 0.038817005545 0.012635379061 0.011666666667 0.038817005545 0.06875
          0.051212938005 0 0 0.064593301435 0.10905730129 0.10491803279
          0.036858974359 0.034023668639 0.10491803279 0.10905730129 0.064593301435 0
          0 0.070588235294 0.15523465704 0.16506410256 0.12283464567 0.11271676301
          0.16506410256 0.15523465704 0.070588235294 0 0 0.081896551724
          0.19333333333 0.25443786982 0.33959537572 0.38985313752 0.25443786982 0.19333333333
          0.081896551724 0 0 0.093301435407 0.24768946396 0.35573770492
          0.41987179487 0.46449704142 0.35573770492 0.24768946396 0.093301435407 0
          0 0.10781671159 0.30833333333 0.39556377079 0.4440433213 0.48666666667
          0.39556377079 0.30833333333 0.10781671159 0 0 0.16197183099
          0.35579514825 0.43062200957 0.44470588235 0.49137931034 0.43062200957 0.35579514825
          0.16197183099 0 0 0.16101694915 0.3538961039 0.42939481268
          0.4447592068 0.49090909091 0.42939481268 0.3538961039 0.16101694915 0
          0 0 0 0 0 0
          0 0 0 0 0 0.025
          0 0 0 0 0 0
          0.025 0 0 0.05023923445 0.068391866913 0.039344262295
          0.012820512821 0.011834319527 0.039344262295 0.068391866913 0.05023923445 0
          0 0.063694267516 0.10819672131 0.10465116279 0.036984352774 0.034120734908
          0.10465116279 0.10819672131 0.063694267516 0 0 0.070981210856
          0.15544871795 0.16500711238 0.12290502793 0.11282051282 0.16500711238 0.15544871795
          0.070981210856 0 0 0.082217973231 0.19378698225 0.25459317585
          0.33974358974 0.38981042654 0.25459317585 0.19378698225 0.082217973231 0
          0 0.093418259023 0.24918032787 0.35610465116 0.41963015647 0.46456692913
          0.35610465116 0.24918032787 0.093418259023 0 0 0.10765550239
          0.30868761553 0.39508196721 0.44391025641 0.48668639053 0.39508196721 0.30868761553
          0.10765550239 0 0 0.1625 0.35645933014 0.43099787686
          0.44467640919 0.4913957935 0.43099787686 0.35645933014 0.1625 0
          0 0.16165413534 0.35446685879 0.42966751918 0.44472361809 0.49078341014
          0.42966751918 0.35446685879 0.16165413534 0 0 0
          0 0 0 0 0 0
          0 0 0 0.02786377709 0 0
          0 0 0 0 0.02786377709 0
          0 0.054117647059 0.070397111913 0.040064102564 0.014173228346 0.013005780347
          0.040064102564 0.070397111913 0.054117647059 0 0 0.066805845511
          0.11057692308 0.106685633 0.037709497207 0.034615384615 0.106685633 0.11057692308
          0.066805845511 0 0 0.074226804124 0.16062992126 0.16759776536
          0.12362637363 0.11292346299 0.16759776536 0.16062992126 0.074226804124 0
          0 0.084427767355 0.19942196532 0.25769230769 0.33877038896 0.39145496536
          0.25769230769 0.19942196532 0.084427767355 0 0 0.093945720251
          0.25320512821 0.35988620199 0.41899441341 0.46666666667 0.35988620199 0.25320512821
          0.093945720251 0 0 0.10588235294 0.31407942238 0.39903846154
          0.44409448819 0.48988439306 0.39903846154 0.31407942238 0.10588235294 0
          0 0.16718266254 0.36705882353 0.43841336117 0.44536082474 0.49530956848
          0.43841336117 0.36705882353 0.16718266254 0 0 0.16728624535
          0.36543909348 0.43718592965 0.44554455446 0.49435665914 0.43718592965 0.36543909348
          0.16728624535 0 0 0 0 0
          0 0 0 0 0 0
          0 0.025280898876 0 0 0 0
          0 0 0.025280898876 0 0 0.049568965517
          0.066666666667 0.038461538462 0.013005780347 0.012016021362 0.038461538462 0.066666666667
          0.049568965517 0 0 0.06309751434 0.1050295858 0.10367454068
          0.037179487179 0.034360189573 0.10367454068 0.1050295858 0.06309751434 0
          0 0.071294559099 0.15462427746 0.1641025641 0.12296110414 0.11316397229
          0.1641025641 0.15462427746 0.071294559099 0 0 0.082616179002
          0.19359145527 0.25473933649 0.34064665127 0.38930481283 0.25473933649 0.19359145527
          0.082616179002 0 0 0.093690248566 0.24852071006 0.35564304462
          0.41923076923 0.46327014218 0.35564304462 0.24852071006 0.093690248566 0
          0 0.10775862069 0.30833333333 0.39349112426 0.4436416185 0.48598130841
          0.39349112426 0.30833333333 0.10775862069 0 0 0.16292134831
          0.35560344828 0.43021032505 0.44465290807 0.49053356282 0.43021032505 0.35560344828
          0.16292134831 0 0 0.16216216216 0.35324675325 0.42857142857
          0.44469525959 0.48962655602 0.42857142857 0.35324675325 0.16216216216 0
          0 0 0 0 0 0
          0 0 0 0 0 0.025
          0 0 0 0 0 0
          0.025 0 0 0.05023923445 0.068391866913 0.039344262295
          0.012820512821 0.011834319527 0.039344262295 0.068391866913 0.05023923445 0
          0 0.063694267516 0.10819672131 0.10465116279 0.036984352774 0.034120734908
          0.10465116279 0.10819672131 0.063694267516 0 0 0.070981210856
          0.15544871795 0.16500711238 0.12290502793 0.11282051282 0.16500711238 0.15544871795
          0.070981210856 0 0 0.082217973231 0.19378698225 0.25459317585
          0.33974358974 0.38981042654 0.25459317585 0.19378698225 0.082217973231 0
          0 0.093418259023 0.24918032787 0.35610465116 0.41963015647 0.46456692913
          0.35610465116 0.24918032787 0.093418259023 0 0 0.10765550239
          0.30868761553 0.39508196721 0.44391025641 0.48668639053 0.39508196721 0.30868761553
          0.10765550239 0 0 0.1625 0.35645933014 0.43099787686
          0.44467640919 0.4913957935 0.43099787686 0.35645933014 0.1625 0
          0 0.16165413534 0.35446685879 0.42966751918 0.44472361809 0.49078341014
          0.42966751918 0.35446685879 0.16165413534 0 0 0
          0 0 0 0 0 0
          0 0 0 0.024647887324 0 0
          0 0 0 0 0.024647887324 0
          0 0.051212938005 0.06875 0.038817005545 0.012635379061 0.011666666667
          0.038817005545 0.06875 0.051212938005 0 0 0.064593301435
          0.10905730129 0.10491803279 0.036858974359 0.034023668639 0.10491803279 0.10905730129
          0.064593301435 0 0 0.070588235294 0.15523465704 0.16506410256
          0.12283464567 0.11271676301 0.16506410256 0.15523465704 0.070588235294 0
          0 0.081896551724 0.19333333333 0.25443786982 0.33959537572 0.38985313752
          0.25443786982 0.19333333333 0.081896551724 0 0 0.093301435407
          0.24768946396 0.35573770492 0.41987179487 0.46449704142 0.35573770492 0.24768946396
          0.093301435407 0 0 0.10781671159 0.30833333333 0.39556377079
          0.4440433213 0.48666666667 0.39556377079 0.30833333333 0.10781671159 0
          0 0.16197183099 0.35579514825 0.43062200957 0.44470588235 0.49137931034
          0.43062200957 0.35579514825 0.16197183099 0 0 0.16101694915
          0.3538961039 0.42939481268 0.4447592068 0.49090909091 0.42939481268 0.3538961039
          0.16101694915 0 0 0 0 0
          0 0 0 0 0 0
          0 0.027906976744 0 0 0 0
          0 0 0.027906976744 0 0 0.056338028169
          0.072776280323 0.040669856459 0.014117647059 0.012931034483 0.040669856459 0.072776280323
          0.056338028169 0 0 0.06875 0.11483253589 0.10828025478
          0.0375782881 0.034416826004 0.10828025478 0.11483253589 0.06875 0
          0 0.074303405573 0.16235294118 0.16910229645 0.12371134021 0.11257035647
          0.16910229645 0.16235294118 0.074303405573 0 0 0.084269662921
          0.20043103448 0.25812619503 0.33771106942 0.39242685026 0.25812619503 0.20043103448
          0.084269662921 0 0 0.09375 0.25358851675 0.36093418259
          0.41962421712 0.46845124283 0.36093418259 0.25358851675 0.09375 0
          0 0.10563380282 0.3153638814 0.4019138756 0.44470588235 0.49137931034
          0.4019138756 0.3153638814 0.10563380282 0 0 0.16744186047
          0.36971830986 0.440625 0.44582043344 0.49719101124 0.440625 0.36971830986
          0.16744186047 0 0 0.16759776536 0.3686440678 0.43984962406
          0.44609665428 0.49662162162 0.43984962406 0.3686440678 0.16759776536 0
          0 0 0 0 0 0
          0 0 0 0 0 0.027932960894
          0 0 0 0 0 0
          0.027932960894 0 0 0.055084745763 0.071428571429 0.040345821326
          0.014164305949 0.012987012987 0.040345821326 0.071428571429 0.055084745763 0
          0 0.067669172932 0.11239193084 0.1074168798 0.037688442211 0.034562211982
          0.1074168798 0.11239193084 0.067669172932 0 0 0.074349442379
          0.16147308782 0.16834170854 0.12376237624 0.11286681716 0.16834170854 0.16147308782
          0.074349442379 0 0 0.084459459459 0.2 0.25806451613
          0.33860045147 0.39211618257 0.25806451613 0.2 0.084459459459 0
          0 0.093984962406 0.25360230548 0.36061381074 0.41959798995 0.46774193548
          0.36061381074 0.25360230548 0.093984962406 0 0 0.10593220339
          0.31493506494 0.40057636888 0.4447592068 0.49090909091 0.40057636888 0.31493506494
          0.10593220339 0 0 0.16759776536 0.3686440678 0.43984962406
          0.44609665428 0.49662162162 0.43984962406 0.3686440678 0.16759776536 0
          0 0.1677852349 0.36734693878 0.43891402715 0.44642857143 0.49593495935
          0.43891402715 0.36734693878 0.1677852349 0
        </DataArray>
        <DataArray type="Float64" Name="Displacement" NumberOfComponents="3" format="ascii" RangeMin="1.7813592644" RangeMax="1.7981450942">
          -0.0057932205382 1.7944655366 -0.0084649431247 -0.003681555651 1.7893660804 -0.009128777758
          -0.0027524207836 1.7884413653 -0.0068674401889 -0.0029917168655 1.7876520055 -0.0061420577026
          -0.0029482540047 1.7873576713 -0.0060948333772 -0.0027866700979 1.7872872456 -0.0061377770175
          -0.0027140849036 1.7872079277 -0.0061467008565 -0.0028997335038 1.787648186 -0.0067770194841
          -0.002123560189 1.788302816 -0.0090836316893 0.00025678003641 1.7931756754 -0.0083575713886
          -0.0033289169531 1.7884237069 -0.0080681069981 -0.000437351656 1.7889724216 -0.0088714665137
          -0.0025765861873 1.788678338 -0.0073218254851 -0.0026891395115 1.7888004782 -0.0075718189619
          -0.0027691009451 1.7886534537 -0.0074606713592 -0.0028045844495 1.7882041915 -0.007263204293
          -0.0027253592355 1.788357959 -0.0075656046557 -0.002844997442 1.7880300739 -0.0074003687089
          -0.0049536792874 1.7880075622 -0.0088905270149 -0.0020873980044 1.7870305286 -0.0079689751754
          -0.0026012055418 1.7879768231 -0.0071342112406 -0.0030389910074 1.7894621014 -0.0074336467041
          -0.0023861460522 1.7891798482 -0.0077432364053 -0.0027371701291 1.7885757897 -0.0075098981983
          -0.0025321794276 1.788784366 -0.0080782281517 -0.0026042721569 1.7887565647 -0.0080773247074
          -0.0023542139383 1.788135946 -0.007530771611 -0.002726483732 1.7884310124 -0.0077225178179
          -0.0020139885246 1.7883983073 -0.0073449430603 -0.0025407014215 1.7866560596 -0.00717475602
          -0.0029038378657 1.7893709725 -0.0070539524172 -0.0019761852846 1.7887100696 -0.0072906550445
          -0.0023298475018 1.7887884225 -0.0077589989641 -0.0025064670055 1.7884011455 -0.007681438336
          -0.0024214322973 1.7880703461 -0.0076704473563 -0.0024446588356 1.7879353965 -0.0077594967425
          -0.0022295648431 1.7878857927 -0.0075762834368 -0.0024779724579 1.7880652165 -0.0077505626451
          -0.0027715651113 1.7876812915 -0.007240514441 -0.001948846439 1.7879908636 -0.0070523770595
          -0.0023348071706 1.7895010415 -0.0074539066302 -0.0018872789314 1.78863097 -0.0078335697561
          -0.0020902571661 1.7887364707 -0.0075131801811 -0.0017094053439 1.788430464 -0.007738258231
          -0.0023188577054 1.787529813 -0.0078174234678 -0.0022441837717 1.7879207988 -0.0077907828293
          -0.0027628799656 1.7878792581 -0.0077207266928 -0.0024173836991 1.7879864115 -0.0074909245412
          -0.0025786243729 1.7875964745 -0.0077738521222 -0.002189521061 1.7881207697 -0.0074532955005
          -0.0020198777573 1.7891975892 -0.0078696046097 -0.0016023210153 1.7889277389 -0.0083664554647
          -0.0019987100356 1.7884688874 -0.0084102669567 -0.0020017018194 1.7883153733 -0.0083615889646
          -0.0019279710041 1.7877840882 -0.0083847884703 -0.0021566727169 1.787581891 -0.0084568403514
          -0.0022057946835 1.7877870402 -0.0083655862922 -0.002192001821 1.7877037888 -0.0083649780701
          -0.0025588822071 1.787887044 -0.0083153232411 -0.0021612384078 1.7877900718 -0.0078690037842
          -0.0016735564511 1.7894296089 -0.0080515123077 -0.0012846746752 1.78899822 -0.0086133279715
          -0.0021926848633 1.7889663559 -0.0079713580119 -0.0020245196391 1.7880020779 -0.0089737571351
          0.0012822894356 1.7877862292 -0.0064021409708 -0.0052966316051 1.7876354615 -0.0063422888409
          -0.0018525752085 1.7874992017 -0.0090190804049 -0.0016847603705 1.7881998253 -0.0079470461535
          -0.0025306202674 1.7879265669 -0.008556637439 -0.0021782290503 1.7880718334 -0.0080097407051
          -0.00090740733938 1.7890547577 -0.0087911869613 -0.00019177391672 1.7892295228 -0.0091057505318
          -0.0022272349846 1.7888512536 -0.0084247780252 -0.0026209014232 1.7879108189 -0.0094765208417
          0.0023516412481 1.7874877583 -0.0061554676129 -0.0060168128517 1.7872850139 -0.0061788876113
          -0.00091899374541 1.7874399534 -0.009523584341 -0.0013331501844 1.7880807646 -0.0084377305541
          -0.0033227465416 1.7881490685 -0.0090607450409 -0.0027122640834 1.7877608107 -0.0087384950257
          -0.00068946582629 1.7900693509 -0.0091893203776 0.00048962458529 1.7875841469 -0.011937627244
          -0.00039070590255 1.7906799976 -0.0079780314658 -0.00063730923137 1.7907086941 -0.0079101334705
          -0.0010019875239 1.7898770212 -0.0092073176658 -0.0024405226548 1.7896540709 -0.009166228408
          -0.0027448183463 1.7902461462 -0.0078898768532 -0.0029093720613 1.7899345607 -0.0079736828963
          -0.003910606422 1.7865517275 -0.011996243597 -0.002700095287 1.788790701 -0.0092349646985
          -0.00071930282331 1.78242655 -0.016328974038 -0.0013381618068 1.7956022635 -0.0021275017381
          0.0018094316655 1.7895322157 -0.0099640792625 0.00078649988222 1.789655623 -0.008433466052
          -0.001782781577 1.7946353358 -0.003388538895 -0.0010779179617 1.7945466132 -0.0034453287181
          -0.0038429744566 1.7891685436 -0.0084965435694 -0.0048264524685 1.7887138123 -0.010085442794
          -0.0016411812022 1.7945482853 -0.0021868011175 -0.0024833676039 1.7812825938 -0.016339600604
          -0.0044666752157 1.7896831939 -0.0068944285719 -0.0048918012367 1.7909352611 -0.0075344735992
          -0.0033230842081 1.7891090624 -0.006836136345 -0.0026511212975 1.7887971495 -0.0075647449547
          -0.0028856933193 1.7887451688 -0.0073416205375 -0.0028679641207 1.7883477243 -0.0070813609953
          -0.003104186145 1.7883452329 -0.0075634957705 -0.0023673022686 1.7884446684 -0.0069246474744
          -0.00079741011427 1.7898843663 -0.0075337149601 -0.0012091178272 1.7884075093 -0.0068656270574
          -0.0033042951825 1.7884206205 -0.0058941397253 -0.0027878165868 1.7896600638 -0.0076379688198
          -0.0029203358291 1.7893135768 -0.007537687869 -0.0027365406436 1.7887214493 -0.0073500721272
          -0.0027387213512 1.7886377723 -0.0073599207428 -0.002704084585 1.7887046577 -0.0075988281367
          -0.0026921527173 1.7882112748 -0.0073024911951 -0.0024788147677 1.7885468404 -0.0074861905748
          -0.0026042866844 1.7886206316 -0.0076086096115 -0.0021165651037 1.7870401762 -0.0058707634626
          -0.0021548022009 1.7900785641 -0.0078640636438 -0.0024756653852 1.7892319891 -0.0074403531537
          -0.0024737428804 1.7889245233 -0.0076403900421 -0.0026275601184 1.7884279999 -0.0072278016989
          -0.0025734364984 1.7882140415 -0.0073306037967 -0.0025699806036 1.7880828633 -0.00736357834
          -0.002508500989 1.7879653265 -0.0072406478478 -0.00263320229 1.7881616718 -0.007618015035
          -0.002610732648 1.7881954521 -0.0074224726183 -0.0028986346487 1.7886910687 -0.0077949219771
          -0.0019844543722 1.7894116577 -0.007838837053 -0.0025398364646 1.7893212277 -0.0075183244202
          -0.0024295571692 1.7888651216 -0.0074963838281 -0.0025351259169 1.7884199801 -0.0073240323994
          -0.0024658016513 1.7881545948 -0.0075145634261 -0.0023739294378 1.7880014473 -0.0075407382371
          -0.002279191843 1.7879624813 -0.0073293739353 -0.0023797110685 1.7880885289 -0.0074674588006
          -0.0022835543676 1.7882603871 -0.0075057805273 -0.0027696437411 1.7880450169 -0.0078105002819
          -0.0018356587931 1.7892471217 -0.0077781492492 -0.0020036088773 1.7891037969 -0.0074335314185
          -0.0022428002903 1.7888868471 -0.007827643826 -0.0021982175392 1.7886327816 -0.0076650491572
          -0.0022923469103 1.7882001448 -0.0078143338961 -0.002130581418 1.7879766368 -0.0078827298884
          -0.002322934466 1.7881804408 -0.0077165608861 -0.0022460298063 1.7881259769 -0.0078095266839
          -0.0025128017582 1.788055112 -0.0074381458842 -0.0026208563325 1.7878883461 -0.007752770484
          -0.0020259277799 1.7893282027 -0.0077969376604 -0.0019909565 1.78904797 -0.008149840407
          -0.001971773908 1.7888354085 -0.0083604137154 -0.0019695034715 1.7885913113 -0.0083357372827
          -0.0020226826609 1.7881310568 -0.0085581209825 -0.0021564603986 1.7879605287 -0.0085765620277
          -0.0022427316462 1.7881468704 -0.0083605860746 -0.002231031449 1.7880946704 -0.0083469681336
          -0.0022218506508 1.7880095355 -0.0081304435345 -0.002144858211 1.7879802174 -0.007759378293
          -0.001501990567 1.7895175012 -0.0081183203258 -0.0014416285787 1.7891166076 -0.0085800444731
          -0.0019157617196 1.7887669946 -0.0085030230138 -0.0019953550954 1.7884646383 -0.0087937725954
          -0.0019455066306 1.7882805564 -0.0089004284172 -0.0019835155341 1.7880985337 -0.0089622216544
          -0.0019374928898 1.7879989707 -0.0088136272892 -0.0019798947994 1.7880097909 -0.0085108634633
          -0.0024475711839 1.7880699415 -0.0085402794505 -0.0023790336147 1.7881811027 -0.0080859617444
          -0.0010325187792 1.7892949656 -0.0087511053157 -0.0014894175835 1.7894169318 -0.0084630515494
          -0.001795072725 1.7891530383 -0.0084795338625 -0.0014716465036 1.7887536606 -0.0089114866851
          -0.0021802291939 1.788453212 -0.0090639141929 -0.001449707576 1.7882874017 -0.0090804114826
          -0.0021284289802 1.788270738 -0.0089598147898 -0.0018030121444 1.7883769032 -0.008486907936
          -0.0021347822953 1.7883557459 -0.0084501470136 -0.002569392781 1.7879723048 -0.0087092916313
          -0.00027739653643 1.7914177436 -0.0075379344962 -0.0019534727921 1.7896718201 -0.0075131712154
          -0.0009360614573 1.789008819 -0.0085829988057 -0.0010340020746 1.788467657 -0.0087351858394
          -0.0027549837979 1.7878208232 -0.0110300297 -0.0006023363823 1.7876190659 -0.011067030764
          -0.0023134891975 1.7880072256 -0.0087522116664 -0.0024021661934 1.7882697297 -0.0085620181169
          -0.0013843818532 1.7886230946 -0.0075135800537 -0.0031079869679 1.7901915362 -0.00747619059
          -0.0023027802243 1.7875920683 -0.0097257076379 -0.0030660851701 1.7863091143 -0.012200744726
          -0.0020499967706 1.7876322762 -0.011213699215 -0.0027981210372 1.7902658157 -0.0084658998566
          0.003395785504 1.7859346778 -0.0067485127779 -0.0064321812697 1.7857536633 -0.006814666811
          -0.00024327272604 1.7898294112 -0.0084325451889 -0.00095340650778 1.7868247865 -0.011220430787
          0.00010334388229 1.7851706636 -0.012207549728 -0.00051880834178 1.7859990516 -0.0096731534794
          -0.0028621382236 1.7889663336 -0.0064927840264 -0.0026924026636 1.7893842384 -0.007307199737
          -0.00293560629 1.788958838 -0.0070414344534 -0.0029187847432 1.7884820389 -0.0065563971616
          -0.0029212803792 1.788044724 -0.0063620642202 -0.0028568130149 1.7879527445 -0.0062984670375
          -0.0028431196846 1.7880592551 -0.0065871121434 -0.0028113857273 1.7882039957 -0.0070389885168
          -0.0030058480084 1.7883647397 -0.0072871521303 -0.0029634204852 1.7875081162 -0.0064669789032
          -0.002889645423 1.7901824668 -0.0071710567809 -0.0033620421737 1.7895831117 -0.006815045061
          -0.0029613531878 1.7894384902 -0.0074412873282 -0.0027141936403 1.7885731617 -0.0070714751874
          -0.0027446119189 1.7885675172 -0.0071892056744 -0.0026793512902 1.7884468755 -0.0071936971543
          -0.0027079358177 1.7881251115 -0.0070667146329 -0.0024718756442 1.7886888595 -0.0074306292996
          -0.0020747999997 1.7885292472 -0.0068098599401 -0.002469016079 1.7888468458 -0.0071339781717
          -0.0025000668634 1.7897947103 -0.007695014488 -0.0024872415328 1.7892396003 -0.0073844809401
          -0.0025731782943 1.7890357847 -0.0074468268052 -0.0025784558182 1.7886673329 -0.0073268831603
          -0.0025651378234 1.7885389494 -0.0073422104161 -0.0026065411906 1.7883736563 -0.0073165362106
          -0.002523172004 1.788211737 -0.0073140165439 -0.0025582522886 1.7882805561 -0.0074163346409
          -0.0026258477688 1.7881894619 -0.007355947599 -0.002630909022 1.7884545932 -0.0076712439983
          -0.0023412526268 1.7895819338 -0.0075450747225 -0.0023379894821 1.7894963531 -0.0076476685941
          -0.002429465426 1.7890754902 -0.0075885163001 -0.0023846780375 1.7887801021 -0.0076318460971
          -0.0024165565719 1.7884804398 -0.0076631213073 -0.0023942758047 1.7882747402 -0.0076747175792
          -0.0024085497358 1.7883046145 -0.007611317153 -0.0023986230523 1.7883269489 -0.0075613663114
          -0.0024560889713 1.7884362718 -0.0076085563534 -0.0024979632657 1.7882274854 -0.0075394770699
          -0.0020623577858 1.7900983643 -0.0078150928248 -0.0020010421636 1.7896286046 -0.007747884524
          -0.0021470052719 1.7891518687 -0.0078132115489 -0.002164830676 1.7887670954 -0.0079025342137
          -0.0022865477852 1.788523229 -0.0079516116112 -0.0022481863431 1.7883159385 -0.0079284811782
          -0.0023465151022 1.7883303858 -0.0078604760559 -0.0023835560521 1.788396296 -0.0077793240866
          -0.002505689714 1.7885787182 -0.0077132937681 -0.0024863930439 1.7887650138 -0.0078266329152
          -0.0015334375082 1.7896716412 -0.0081237957947 -0.0018883022789 1.7896419561 -0.0078391170689
          -0.0019913295322 1.7892154966 -0.0080466211568 -0.0018987153398 1.7888115032 -0.0081485955572
          -0.0018114383064 1.7884925064 -0.0083009863313 -0.0024309862197 1.7883268913 -0.0083015372969
          -0.0023214399498 1.7883680774 -0.008135934661 -0.0022416606403 1.7884632169 -0.0080190093097
          -0.0023220301328 1.788592837 -0.0078114826827 -0.0027151304101 1.7883410427 -0.0081205407198
          -0.0011281360059 1.790263062 -0.00827794913 -0.0011510487025 1.7896751655 -0.0083496596062
          -0.0016025873119 1.7892583744 -0.0082744023032 -0.001175191061 1.7888300221 -0.0083656345674
          -0.0011134298107 1.7883078454 -0.008315850973 -0.0027893261998 1.7881539629 -0.0083161054023
          -0.0027663663572 1.7883819792 -0.0083531599276 -0.0023273668143 1.7885054852 -0.0082536560124
          -0.0027452385912 1.7886166931 -0.0083256190779 -0.002814100227 1.7889433896 -0.0082610471416
          -0.00094469445964 1.7895344408 -0.0085464545606 -0.00018510009913 1.7897487311 -0.008741374382
          -0.0011284753509 1.7888398643 -0.0088309643093 -0.0015819319556 1.7884263842 -0.00893010632
          -0.0007632955601 1.7885094471 -0.008128795206 -0.0028587307107 1.788331343 -0.0081729242756
          -0.0020833003888 1.7879572516 -0.0089279166957 -0.0025270743811 1.7880831763 -0.0088279352371
          -0.0034416259097 1.7886907464 -0.0087340199497 -0.0026713036104 1.7881757659 -0.0085133318055
          0.00044602527452 1.7905466315 -0.0088300554961 0.00016421159447 1.7903884406 -0.0081781324303
          -0.00059772752877 1.7887507566 -0.0091247465164 -0.00095738869285 1.7884864821 -0.0090741042525
          -0.00018580075912 1.7866485692 -0.0094985504618 -0.003184537628 1.786472685 -0.0094978530885
          -0.0023932952471 1.7880232336 -0.0090888277389 -0.0027499319341 1.7879912109 -0.0091343331124
          -0.0035335839649 1.7893620612 -0.0081607308316 -0.0037828606186 1.7891711499 -0.0087730249143
          0.0029981859927 1.7912667698 -0.008996164086 0.0025996258272 1.7898607007 -0.0095768077136
          0.0030275025544 1.7886793876 -0.0098475865026 0.0019889210974 1.7876396747 -0.0085870717833
          -0.0021815543328 1.7887045874 -0.0089226183455 -0.00089524624217 1.7885089181 -0.0089746257569
          -0.0050517887665 1.7871627172 -0.0085927318509 -0.0061115712913 1.7878648542 -0.0098641692936
          -0.00573648502 1.7888412943 -0.0095309168301 -0.0062261020365 1.7901487648 -0.0089836560939
          -0.0023015060345 1.7891887636 -0.0069763783041 -0.0032046703723 1.7894569471 -0.0067989007317
          -0.0031195038487 1.7894271033 -0.0069780188598 -0.0028895947546 1.7888305013 -0.0068952354203
          -0.002938378522 1.7887952691 -0.0069550355977 -0.0027986011473 1.7886595999 -0.0069780370518
          -0.0028582329835 1.7883789089 -0.0068704421302 -0.0026276891794 1.7886740146 -0.0069815333446
          -0.002530337467 1.7884369553 -0.0067861052298 -0.0034832167384 1.7877802537 -0.0069517205325
          -0.0031419983238 1.7904508245 -0.0068840890784 -0.0030642077773 1.7897674944 -0.0070789533201
          -0.0027186911634 1.789125984 -0.007147702535 -0.0028250985246 1.7890324672 -0.0072235839342
          -0.0027354479964 1.7886894892 -0.0071540185624 -0.0026986950904 1.7885670407 -0.0071720921982
          -0.0025912051534 1.7885900448 -0.0072307811545 -0.0027198489963 1.7883684721 -0.0071326000335
          -0.0024015150379 1.7886866345 -0.0070746962494 -0.0022222852848 1.7891521589 -0.0069087746698
          -0.0023424527598 1.7898657432 -0.0074722540281 -0.0022771395719 1.7895613391 -0.0075302759571
          -0.0025864803358 1.7892736216 -0.0073961979822 -0.0025472136062 1.7889882137 -0.0073821057997
          -0.0025694736511 1.7887647552 -0.0073917143837 -0.0025093921414 1.7886182167 -0.0073863024696
          -0.0025704004968 1.7885393756 -0.0073812642383 -0.002549119378 1.7885315874 -0.0073704694797
          -0.0028491825482 1.7885003501 -0.0074950116273 -0.0028195801933 1.7884791879 -0.0074506404389
          -0.0020950372347 1.7899133438 -0.007822819887 -0.0022911197961 1.7896937946 -0.0076505955989
          -0.0023181720496 1.7893993386 -0.0075418693207 -0.0024173177118 1.7890523484 -0.0076342274216
          -0.0023814357943 1.7886933489 -0.0076304159295 -0.002350629566 1.7885147293 -0.0076278209132
          -0.0023935102746 1.7886008403 -0.0076089586367 -0.0025086402867 1.7886442129 -0.0075044915625
          -0.0025171970356 1.7886454888 -0.0076201952893 -0.0027025067941 1.7885854415 -0.0077705734888
          -0.002025229081 1.7899691296 -0.0078460523736 -0.0019265300432 1.7897226364 -0.007816319907
          -0.001995018946 1.7894074589 -0.0077826627548 -0.0020943576865 1.7891069777 -0.0078665796278