<?xml version="1.0"?>
<VTKFile type="UnstructuredGrid" version="0.1" byte_order="LittleEndian" compressor="vtkZLibDataCompressor">
  <UnstructuredGrid>
    <FieldData>
      <DataArray type="Float64" Name="TIME" NumberOfTuples="1" format="ascii" RangeMin="0.23500326295" RangeMax="0.23500326295">
        0.23500326295
      </DataArray>
    </FieldData>
    <Piece NumberOfPoints="1000" NumberOfCells="0">
      <PointData>
        <DataArray type="Float64" Name="Damage" format="ascii" RangeMin="0" RangeMax="0.49719101124">
          0 0 0 0 0 0
          0 0 0 0 0 0.027932960894
          0 0 0 0 0 0
          0.027932960894 0 0 0.055084745763 0.071428571429 0.040345821326
          0.014164305949 0.012987012987 0.040345821326 0.071428571429 0.055084745763 0
          0 0.067669172932 0.11239193084 0.1074168798 0.037688442211 0.034562211982
          0.1074168798 0.11239193084 0.067669172932 0 0 0.074349442379
          0.16147308782 0.16834170854 0.12376237624 0.11286681716 0.16834170854 0.16147308782
          0.074349442379 0 0 0.084459459459 0.2 0.25806451613
          0.33860045147 0.39211618257 0.25806451613 0.2 0.084459459459 0
          0 0.093984962406 0.25360230548 0.36061381074 0.41959798995 0.46774193548
          0.36061381074 0.25360230548 0.093984962406 0 0 0.10593220339
          0.31493506494 0.40057636888 0.4447592068 0.49090909091 0.40057636888 0.31493506494
          0.10593220339 0 0 0.16759776536 0.3686440678 0.43984962406
          0.44609665428 0.49662162162 0.43984962406 0.3686440678 0.16759776536 0
          0 0.1677852349 0.36734693878 0.43891402715 0.44642857143 0.49593495935
          0.43891402715 0.36734693878 0.1677852349 0 0 0
          0 0 0 0 0 0
          0 0 0 0.027906976744 0 0
          0 0 0 0 0.027906976744 0
          0 0.056338028169 0.072776280323 0.040669856459 0.014117647059 0.012931034483
          0.040669856459 0.072776280323 0.056338028169 0 0 0.06875
          0.11483253589 0.10828025478 0.0375782881 0.034416826004 0.10828025478 0.11483253589
          0.06875 0 0 0.074303405573 0.16235294118 0.16910229645
          0.12371134021 0.11257035647 0.16910229645 0.16235294118 0.074303405573 0
          0 0.084269662921 0.20043103448 0.25812619503 0.33771106942 0.39242685026
          0.25812619503 0.20043103448 0.084269662921 0 0 0.09375
          0.25358851675 0.36093418259 0.41962421712 0.46845124283 0.36093418259 0.25358851675
          0.09375 0 0 0.10563380282 0.3153638814 0.4019138756
          0.44470588235 0.49137931034 0.4019138756 0.3153638814 0.10563380282 0
          0 0.16744186047 0.36971830986 0.440625 0.44582043344 0.49719101124
          0.440625 0.36971830986 0.16744186047 0 0 0.16759776536
          0.3686440678 0.43984962406 0.44609665428 0.49662162162 0.43984962406 0.3686440678
          0.16759776536 0 0 0 0 0
          0 0 0 0 0 0
          0 0.024647887324 0 0 0 0
          0 0 0.024647887324 0 0 0.051212938005
          0.06875 0.038817005545 0.012635379061 0.011666666667 0.038817005545 0.06875
          0.051212938005 0 0 0.064593301435 0.10905730129 0.10491803279
          0.036858974359 0.034023668639 0.10491803279 0.10905730129 0.064593301435 0
          0 0.070588235294 0.15523465704 0.16506410256 0.12283464567 0.11271676301
          0.16506410256 0.15523465704 0.070588235294 0 0 0.081896551724
          0.19333333333 0.25443786982 0.33959537572 0.38985313752 0.25443786982 0.19333333333
          0.081896551724 0 0 0.093301435407 0.24768946396 0.35573770492
          0.41987179487 0.46449704142 0.35573770492 0.24768946396 0.093301435407 0
          0 0.10781671159 0.30833333333 0.39556377079 0.4440433213 0.48666666667
          0.39556377079 0.30833333333 0.10781671159 0 0 0.16197183099
          0.35579514825 0.43062200957 0.44470588235 0.49137931034 0.43062200957 0.35579514825
          0.16197183099 0 0 0.16101694915 0.3538961039 0.42939481268
          0.4447592068 0.49090909091 0.42939481268 0.3538961039 0.16101694915 0
          0 0 0 0 0 0
          0 0 0 0 0 0.025
          0 0 0 0 0 0
          0.025 0 0 0.05023923445 0.068391866913 0.039344262295
          0.012820512821 0.011834319527 0.039344262295 0.068391866913 0.05023923445 0
          0 0.063694267516 0.10819672131 0.10465116279 0.036984352774 0.034120734908
          0.10465116279 0.10819672131 0.063694267516 0 0 0.070981210856
          0.15544871795 0.16500711238 0.12290502793 0.11282051282 0.16500711238 0.15544871795
          0.070981210856 0 0 0.082217973231 0.19378698225 0.25459317585
          0.33974358974 0.38981042654 0.25459317585 0.19378698225 0.082217973231 0
          0 0.093418259023 0.24918032787 0.35610465116 0.41963015647 0.46456692913
          0.35610465116 0.24918032787 0.093418259023 0 0 0.10765550239
          0.30868761553 0.39508196721 0.44391025641 0.48668639053 0.39508196721 0.30868761553
          0.10765550239 0 0 0.1625 0.35645933014 0.43099787686
          0.44467640919 0.4913957935 0.43099787686 0.35645933014 0.1625 0
          0 0.16165413534 0.35446685879 0.42966751918 0.44472361809 0.49078341014
          0.42966751918 0.35446685879 0.16165413534 0 0 0
          0 0 0 0 0 0
          0 0 0 0.02786377709 0 0
          0 0 0 0 0.02786377709 0
          0 0.054117647059 0.070397111913 0.040064102564 0.014173228346 0.013005780347
          0.040064102564 0.070397111913 0.054117647059 0 0 0.066805845511
          0.11057692308 0.106685633 0.037709497207 0.034615384615 0.106685633 0.11057692308
          0.066805845511 0 0 0.074226804124 0.16062992126 0.16759776536
          0.12362637363 0.11292346299 0.16759776536 0.16062992126 0.074226804124 0
          0 0.084427767355 0.19942196532 0.25769230769 0.33877038896 0.39145496536
          0.25769230769 0.19942196532 0.084427767355 0 0 0.093945720251
          0.25320512821 0.35988620199 0.41899441341 0.46666666667 0.35988620199 0.25320512821
          0.093945720251 0 0 0.10588235294 0.31407942238 0.39903846154
          0.44409448819 0.48988439306 0.39903846154 0.31407942238 0.10588235294 0
          0 0.16718266254 0.36705882353 0.43841336117 0.44536082474 0.49530956848
          0.43841336117 0.36705882353 0.16718266254 0 0 0.16728624535
          0.36543909348 0.43718592965 0.44554455446 0.49435665914 0.43718592965 0.36543909348
          0.16728624535 0 0 0 0 0
          0 0 0 0 0 0
          0 0.025280898876 0 0 0 0
          0 0 0.025280898876 0 0 0.049568965517
          0.066666666667 0.038461538462 0.013005780347 0.012016021362 0.038461538462 0.066666666667
          0.049568965517 0 0 0.06309751434 0.1050295858 0.10367454068
          0.037179487179 0.034360189573 0.10367454068 0.1050295858 0.06309751434 0
          0 0.071294559099 0.15462427746 0.1641025641 0.12296110414 0.11316397229
          0.1641025641 0.15462427746 0.071294559099 0 0 0.082616179002
          0.19359145527 0.25473933649 0.34064665127 0.38930481283 0.25473933649 0.19359145527
          0.082616179002 0 0 0.093690248566 0.24852071006 0.35564304462
          0.41923076923 0.46327014218 0.35564304462 0.24852071006 0.093690248566 0
          0 0.10775862069 0.30833333333 0.39349112426 0.4436416185 0.48598130841
          0.39349112426 0.30833333333 0.10775862069 0 0 0.16292134831
          0.35560344828 0.43021032505 0.44465290807 0.49053356282 0.43021032505 0.35560344828
          0.16292134831 0 0 0.16216216216 0.35324675325 0.42857142857
          0.44469525959 0.48962655602 0.42857142857 0.35324675325 0.16216216216 0
          0 0 0 0 0 0
          0 0 0 0 0 0.025
          0 0 0 0 0 0
          0.025 0 0 0.05023923445 0.068391866913 0.039344262295
          0.012820512821 0.011834319527 0.039344262295 0.068391866913 0.05023923445 0
          0 0.063694267516 0.10819672131 0.10465116279 0.036984352774 0.034120734908
          0.10465116279 0.10819672131 0.063694267516 0 0 0.070981210856
          0.15544871795 0.16500711238 0.12290502793 0.11282051282 0.16500711238 0.15544871795
          0.070981210856 0 0 0.082217973231 0.19378698225 0.25459317585
          0.33974358974 0.38981042654 0.25459317585 0.19378698225 0.082217973231 0
          0 0.093418259023 0.24918032787 0.35610465116 0.41963015647 0.46456692913
          0.35610465116 0.24918032787 0.093418259023 0 0 0.10765550239
          0.30868761553 0.39508196721 0.44391025641 0.48668639053 0.39508196721 0.30868761553
          0.10765550239 0 0 0.1625 0.35645933014 0.43099787686
          0.44467640919 0.4913957935 0.43099787686 0.35645933014 0.1625 0
          0 0.16165413534 0.35446685879 0.42966751918 0.44472361809 0.49078341014
          0.42966751918 0.35446685879 0.16165413534 0 0 0
          0 0 0 0 0 0
          0 0 0 0.024647887324 0 0
          0 0 0 0 0.024647887324 0
          0 0.051212938005 0.06875 0.038817005545 0.012635379061 0.011666666667
          0.038817005545 0.06875 0.051212938005 0 0 0.064593301435
          0.10905730129 0.10491803279 0.036858974359 0.034023668639 0.10491803279 0.10905730129
          0.064593301435 0 0 0.070588235294 0.15523465704 0.16506410256
          0.12283464567 0.11271676301 0.16506410256 0.15523465704 0.070588235294 0
          0 0.081896551724 0.19333333333 0.25443786982 0.33959537572 0.38985313752
          0.25443786982 0.19333333333 0.081896551724 0 0 0.093301435407
          0.24768946396 0.35573770492 0.41987179487 0.46449704142 0.35573770492 0.24768946396
          0.093301435407 0 0 0.10781671159 0.30833333333 0.39556377079
          0.4440433213 0.48666666667 0.39556377079 0.30833333333 0.10781671159 0
          0 0.16197183099 0.35579514825 0.43062200957 0.44470588235 0.49137931034
          0.43062200957 0.35579514825 0.16197183099 0 0 0.16101694915
          0.3538961039 0.42939481268 0.4447592068 0.49090909091 0.42939481268 0.3538961039
          0.16101694915 0 0 0 0 0
          0 0 0 0 0 0
          0 0.027906976744 0 0 0 0
          0 0 0.027906976744 0 0 0.056338028169
          0.072776280323 0.040669856459 0.014117647059 0.012931034483 0.040669856459 0.072776280323
          0.056338028169 0 0 0.06875 0.11483253589 0.10828025478
          0.0375782881 0.034416826004 0.10828025478 0.11483253589 0.06875 0
          0 0.074303405573 0.16235294118 0.16910229645 0.12371134021 0.11257035647
          0.16910229645 0.16235294118 0.074303405573 0 0 0.084269662921
          0.20043103448 0.25812619503 0.33771106942 0.39242685026 0.25812619503 0.20043103448
          0.084269662921 0 0 0.09375 0.25358851675 0.36093418259
          0.41962421712 0.46845124283 0.36093418259 0.25358851675 0.09375 0
          0 0.10563380282 0.3153638814 0.4019138756 0.44470588235 0.49137931034
          0.4019138756 0.3153638814 0.10563380282 0 0 0.16744186047
          0.36971830986 0.440625 0.44582043344 0.49719101124 0.440625 0.36971830986
          0.16744186047 0 0 0.16759776536 0.3686440678 0.43984962406
          0.44609665428 0.49662162162 0.43984962406 0.3686440678 0.16759776536 0
          0 0 0 0 0 0
          0 0 0 0 0 0.027932960894
          0 0 0 0 0 0
          0.027932960894 0 0 0.055084745763 0.071428571429 0.040345821326
          0.014164305949 0.012987012987 0.040345821326 0.071428571429 0.055084745763 0
          0 0.067669172932 0.11239193084 0.1074168798 0.037688442211 0.034562211982
          0.1074168798 0.11239193084 0.067669172932 0 0 0.074349442379
          0.16147308782 0.16834170854 0.12376237624 0.11286681716 0.16834170854 0.16147308782
          0.074349442379 0 0 0.084459459459 0.2 0.25806451613
          0.33860045147 0.39211618257 0.25806451613 0.2 0.084459459459 0
          0 0.093984962406 0.25360230548 0.36061381074 0.41959798995 0.46774193548
          0.36061381074 0.25360230548 0.093984962406 0 0 0.10593220339
          0.31493506494 0.40057636888 0.4447592068 0.49090909091 0.40057636888 0.31493506494
          0.10593220339 0 0 0.16759776536 0.3686440678 0.43984962406
          0.44609665428 0.49662162162 0.43984962406 0.3686440678 0.16759776536 0
          0 0.1677852349 0.36734693878 0.43891402715 0.44642857143 0.49593495935
          0.43891402715 0.36734693878 0.1677852349 0
        </DataArray>
        <DataArray type="Float64" Name="Displacement" NumberOfComponents="3" format="ascii" RangeMin="1.7237785395" RangeMax="1.7425588947">
          -0.006295968474 1.7339546826 -0.011425849021 -0.004263720345 1.7326235188 -0.011118269063
          -0.0032640173193 1.7313779314 -0.0088038807715 -0.0034486032789 1.7323012635 -0.0096487126778
          -0.0034278794728 1.7322612237 -0.0096932408578 -0.0035786615359 1.7321524065 -0.0096994966522
          -0.0036367470285 1.7317526824 -0.0096430292626 -0.0037478929676 1.7305239055 -0.0088219319316
          -0.0027133854737 1.7313041439 -0.011031886568 -0.00066882622651 1.7322804535 -0.011347207379
          -0.0040400602198 1.73184303 -0.010218748435 -0.0037431395868 1.7306017225 -0.0078154762137
          -0.0031338913625 1.7299361172 -0.0079538590808 -0.0030561180381 1.7314283403 -0.0091376860423
          -0.0033146619442 1.7316244724 -0.0092696447676 -0.0034257787431 1.7311129957 -0.0090929789829
          -0.0036686791094 1.7309313893 -0.0091918795333 -0.0035705631383 1.7290928636 -0.0079891381279
          -0.0030322551165 1.7292179567 -0.0077850871124 -0.0025526147879 1.7302237245 -0.010100883055
          -0.003234397897 1.729967239 -0.0084086453885 -0.0028892073384 1.7308039735 -0.008797580934
          -0.0030595190809 1.7302770302 -0.0087979223461 -0.0034864296761 1.7311066566 -0.0088245063028
          -0.0032562904824 1.7304318766 -0.0085660072378 -0.0030075278282 1.7301822402 -0.0086665719548
          -0.0028400736156 1.730497828 -0.0087646374514 -0.0032626033773 1.7293095549 -0.0087933910991
          -0.0034127014386 1.7294954256 -0.0087866784959 -0.0030442370724 1.7283347178 -0.0083504589323
          -0.0029857970768 1.7314102525 -0.0093698309448 -0.0026571725048 1.731036927 -0.0098967793594
          -0.0029658675624 1.7308577393 -0.0093250773488 -0.0026819507843 1.7312066657 -0.0094551802287
          -0.0030298694685 1.730676019 -0.0092364830371 -0.0028710285572 1.7305139806 -0.0092432128074
          -0.0031821520159 1.7305222973 -0.0094119117735 -0.0029412399481 1.7299216513 -0.0093095775601
          -0.0032617209004 1.7296548626 -0.0098504006969 -0.0029057113922 1.7297449274 -0.0093128181135
          -0.0032123380093 1.7312523124 -0.0094208269365 -0.0021754634019 1.7314957126 -0.010175102465
          -0.0027667373036 1.7309654705 -0.0099500638869 -0.0024891113563 1.7314501808 -0.0099324675122
          -0.0029079262834 1.7308095443 -0.0099735067384 -0.0028174622754 1.7306419678 -0.0099052838173
          -0.0030533000905 1.730928235 -0.0099748507027 -0.0027795013584 1.7300327537 -0.0099379088281
          -0.0033621462139 1.7301482492 -0.010137200759 -0.0023236065566 1.7295795168 -0.0093716365655
          -0.003586042991 1.7313609763 -0.0097071127947 -0.0017969126821 1.7313894867 -0.010895283851
          -0.0026047683641 1.7304770399 -0.010632047826 -0.0023082709287 1.7307401995 -0.010419260839
          0.0004162337823 1.7313677399 -0.0082772633988 -0.0057040213795 1.7311872341 -0.0082751713148
          -0.0028754511214 1.7302344725 -0.010462393014 -0.0025858696982 1.7295728893 -0.010610133702
          -0.0033696318579 1.7300571336 -0.010855294799 -0.0015981739331 1.7297264648 -0.0096801735255
          -0.0038385634259 1.7307286677 -0.0099012518171 -0.0015295096466 1.7309905006 -0.011502408472
          -0.0031394734279 1.7314331264 -0.0099108929868 -0.00434769403 1.7311839411 -0.010570626701
          -0.0040821455555 1.7306944678 -0.011591648017 -0.00072649536657 1.730475356 -0.011598996455
          -0.0004229658539 1.7306144639 -0.010564591007 -0.001659645586 1.7304705213 -0.0099161543846
          -0.0032502830384 1.7296587664 -0.011464859745 -0.00098461468625 1.7290446034 -0.0099068151656
          -0.0043350159176 1.7306514332 -0.0092904751197 4.8445086368e-05 1.7315022578 -0.012366376808
          -0.0035360191412 1.7312041418 -0.010642640179 -0.0023868933332 1.7312158261 -0.010478398778
          -0.005880253237 1.7301452803 -0.013436229647 0.0014517287148 1.7299201606 -0.013439698254
          -0.002017216311 1.7306195998 -0.010479671779 -0.00089662521373 1.7302302195 -0.010633577342
          -0.0045958829002 1.7301646773 -0.012439738705 -2.693346261e-05 1.7289846447 -0.0091726510183
          -0.0024737734186 1.729145878 -0.012180401035 -0.0066563350183 1.7328212098 -0.0076587602998
          -0.00063945923687 1.7311686378 -0.010645836989 -0.0010619652216 1.7307479271 -0.01073271428
          -0.0020093840757 1.7332288487 -0.0098060757663 -0.0018814975023 1.733107778 -0.0098066507204
          -0.0029999072454 1.7302107611 -0.0106571993 -0.0033704065835 1.7302666942 -0.010588785431
          0.0027869105829 1.7314327498 -0.0076008297119 -0.0016458481392 1.7273794785 -0.012296188206
          -0.0039531603261 1.7252029072 -0.015457273689 -0.0040647147839 1.7285496576 -0.012899151487
          -0.006761807303 1.7273685817 -0.013350243122 -0.0055529257094 1.7279433141 -0.014695264224
          -0.0066852293776 1.7397146486 -0.0047150939208 0.0033316997234 1.7395647993 -0.0048823066539
          0.0019887769498 1.7272520868 -0.014823853336 0.0031151145796 1.7263521545 -0.013335640478
          0.00033102257099 1.7269610822 -0.013102588708 0.00020253815426 1.7237109772 -0.015260377301
          -0.0048819361889 1.7327543677 -0.009686074288 -0.0033134222887 1.731388648 -0.0081176499802
          -0.0032415782129 1.7304311428 -0.0074243832679 -0.0031607161202 1.7317551619 -0.0090383687866
          -0.0033611301891 1.7317597146 -0.0091940965933 -0.0036000635062 1.7313925907 -0.0088809847819
          -0.0038965880257 1.7312401369 -0.0091075629941 -0.0038587102894 1.7295716739 -0.007485324906
          -0.0037803213021 1.7300539549 -0.0080676102033 -0.0021476030768 1.7311429244 -0.0096285668695
          -0.0034829164434 1.7315518798 -0.0084197265015 -0.0031028314022 1.7319027774 -0.009140722322
          -0.0031999677237 1.7308779431 -0.0082628139366 -0.0033682680231 1.7315223138 -0.008783951913
          -0.0033340515671 1.7313291601 -0.0088506873795 -0.0034061844603 1.7308298917 -0.0085427184674
          -0.0033373680248 1.7309935739 -0.0088313333439 -0.0034849050121 1.7299659718 -0.0082775055528
          -0.0036075794643 1.7305818293 -0.0091330141549 -0.0032783735345 1.7298548847 -0.0084376298262
          -0.0031942788663 1.7309363064 -0.0091746252167 -0.0031224368475 1.731438709 -0.0092018881299
          -0.0032836712345 1.7313966557 -0.0088628391552 -0.0031763708566 1.7312763661 -0.0089059168802
          -0.0031452662993 1.7311869698 -0.0088885721872 -0.003199420768 1.7309842898 -0.0088925680936
          -0.0031471670119 1.7307103728 -0.0088912666858 -0.003048884858 1.7304384494 -0.0088508910279
          -0.0032027743582 1.7300961553 -0.0091829794618 -0.0031196571038 1.7292777462 -0.0091396606732
          -0.0028990553942 1.7313931321 -0.01036159461 -0.0029917769467 1.7312484277 -0.0095367836167
          -0.0031015071239 1.7313663206 -0.0093658734526 -0.0029938078524 1.7313091301 -0.0093478847116
          -0.0029660974277 1.7313637535 -0.0093928213032 -0.0030041526613 1.7311888183 -0.0094177429741
          -0.0029404064531 1.7307527662 -0.0093353724247 -0.0028154853993 1.7304264699 -0.0093353997985
          -0.0029458375322 1.7298989174 -0.0094972887599 -0.003079454574 1.7296994262 -0.010296199603
          -0.0029183212965 1.7309403481 -0.010632479312 -0.003296468002 1.7312694868 -0.010240375065
          -0.0028693379379 1.7314034871 -0.0098509009271 -0.0027910495359 1.7312948096 -0.010011455441
          -0.0027813133813 1.7313536916 -0.0098077913704 -0.0028581184878 1.7312095144 -0.0097587847919
          -0.0027325167607 1.7307285457 -0.0099675928694 -0.0026550365816 1.7304613573 -0.0098185292229
          -0.0022497617073 1.7299408958 -0.010204068627 -0.0026793597256 1.7291925108 -0.010571683628
          -0.0027593323881 1.7310630402 -0.010469142917 -0.00297524657 1.7313650246 -0.0099912615383
          -0.0026789448846 1.7314167032 -0.0099590393916 -0.0029358005611 1.7312865515 -0.0099334483058
          -0.0026912616572 1.7314184114 -0.0095496430967 -0.0025026338508 1.7312526259 -0.0095755974852
          -0.0022609499874 1.7307555438 -0.0098809587589 -0.0024910386364 1.7304867134 -0.0099184717194
          -0.0022110702105 1.7300431135 -0.0099668775451 -0.002436653549 1.7293262711 -0.010426965584
          -0.0022906571599 1.7316345586 -0.011144775089 -0.0032036285928 1.7311211532 -0.010443389236
          -0.0028173844331 1.7311048494 -0.010567365754 -0.0029097047559 1.7311597881 -0.010531009796
          -0.0033844989416 1.7311464256 -0.010936948319 -0.0014320435925 1.7308868211 -0.010970470349
          -0.0018933525517 1.7305835763 -0.010537959231 -0.0019684242468 1.7301491881 -0.010558340729
          -0.0016172276673 1.7297856868 -0.010446372081 -0.0025375300225 1.7299143894 -0.011123886356
          -0.0022253470071 1.7313074664 -0.011422496588 -0.0025019913145 1.731372286 -0.010680125035
          -0.0028750886331 1.7313692075 -0.010193828623 -0.0040100993677 1.7313316475 -0.010519717835
          -0.0030051037144 1.7305528636 -0.011855728843 -0.0014333222431 1.7303338128 -0.011854063953
          -0.00044701528109 1.7307605127 -0.010481283564 -0.0015908791172 1.7304233416 -0.010190244884
          -0.0019139683815 1.7300426602 -0.010672373329 -0.0022147381021 1.7295959074 -0.011404096523
          -0.0038742178468 1.7285663515 -0.011819703681 -0.0034737657514 1.7314524581 -0.010054669502
          -0.00303583269 1.7312018506 -0.010321749739 -0.0032264716472 1.7310358095 -0.010634895846
          -0.0031911385586 1.7304174018 -0.011695888784 -0.00087049746888 1.7301942174 -0.011708853539
          -0.00084257572658 1.7304339269 -0.010646621037 -0.001023589885 1.7302198527 -0.010335108355
          -0.00056437173476 1.7300839445 -0.01008035417 -0.00014555650748 1.72684242 -0.011778860702
          -0.0077723889482 1.7266567925 -0.010696287986 -0.00098935089264 1.7337652495 -0.0098899232409
          -0.00018105184239 1.7317905972 -0.011048875063 -0.0013406187642 1.7306394484 -0.011784821159
          -0.01062140794 1.735033265 -0.012497177367 0.0070496267917 1.7348810354 -0.012471311627
          -0.0023240141158 1.730019369 -0.011850068927 -0.0034682805238 1.7307607551 -0.011127561263
          -0.0027408442274 1.7324318337 -0.0099063756944 0.0039572680711 1.7250112537 -0.010747350308
          -0.003114141901 1.7315935673 -0.0078969408823 -0.0027363286297 1.7313534865 -0.0084625964229
          -0.0034435734112 1.7315117142 -0.0079607112496 -0.0036577502428 1.7320368997 -0.0089066012284
          -0.0035363945947 1.7317775328 -0.0088184033666 -0.0035439536623 1.7314064976 -0.0086787895256
          -0.0034290752725 1.7314191677 -0.0088770521638 -0.0035968597149 1.7305818644 -0.0079396739336
          -0.0043318908185 1.7300610565 -0.0084555543662 -0.0039485319702 1.7299567582 -0.0078740727877
          -0.002850114507 1.731288989 -0.0088585717917 -0.0027532381509 1.7313939428 -0.008913262477
          -0.0035445547293 1.7323608017 -0.0089822780437 -0.0032696847822 1.7316824085 -0.0087165506021
          -0.0033432819934 1.7316857009 -0.0088236039272 -0.00336445495 1.7315036765 -0.0087781305039
          -0.0034419349263 1.7310994161 -0.0087211631551 -0.0031521641513 1.7314349302 -0.0089804432356
          -0.0039455651538 1.7300843107 -0.0089009784747 -0.0038726521761 1.7296274276 -0.0088358881641
          -0.0031354265544 1.7316034577 -0.0089764860826 -0.0038712931682 1.7320321309 -0.0089426189151
          -0.0031995352181 1.7318333182 -0.0091091380778 -0.0031602878883 1.7317150227 -0.0090715576391
          -0.0031752517118 1.7316098038 -0.0091300986747 -0.003105942249 1.7314119457 -0.0091295275042
          -0.0031722367498 1.7311492512 -0.0090728614275 -0.0031278231057 1.7308791831 -0.0091135628634
          -0.0024739261661 1.7306944442 -0.0089338037101 -0.0031862961556 1.7298972424 -0.0089586381301
          -0.0031377395021 1.7316419935 -0.0094111482653 -0.0030561511888 1.7316982857 -0.0094538265361
          -0.0029827722155 1.7317881687 -0.0094753616176 -0.0029457085192 1.7317471368 -0.0094255320363
          -0.0029672748935 1.7317106076 -0.0093298219509 -0.0029822334666 1.7315411009 -0.0092959447468
          -0.0030021896521 1.7311417491 -0.0094304363197 -0.0029472274415 1.7308306439 -0.0094822242884
          -0.0028676450799 1.7303715813 -0.0094281337957 -0.0028030714834 1.7299265622 -0.0093834228624
          -0.0032727955474 1.7317870415 -0.0095589240678 -0.0030211297369 1.7316049686 -0.0099116137749
          -0.0028596976461 1.7316351122 -0.0097872694325 -0.002909564925 1.7316256571 -0.0097467690604
          -0.002771845787 1.7316392438 -0.0096331878473 -0.0027453175814 1.7314466592 -0.0096708511381
          -0.0026803066 1.731066482 -0.0097174802152 -0.0026904898109 1.7307049862 -0.0097748954741
          -0.0025362899435 1.7302889055 -0.0098772460796 -0.0022939583114 1.7300699534 -0.0095341223426
          -0.0032431432577 1.7319400372 -0.0097508976114 -0.003002125319 1.7315509927 -0.01009410369
          -0.0029038381789 1.7315756374 -0.010003100154 -0.0029699419887 1.731662758 -0.0099977959827
          -0.0029407976611 1.7316307672 -0.0099019258525 -0.0022567861548 1.7314345151 -0.0098840243923
          -0.0022317424203 1.7311114099 -0.0099906600201 -0.0022869386592 1.7306458318 -0.0099912823877
          -0.0021555641068 1.7302277709 -0.010057390962 -0.0019531210534 1.7302478004 -0.0097404776911
          -0.0033780401232 1.7315151701 -0.0098565701815 -0.0028114644741 1.7315028086 -0.01047048506
          -0.0031676803941 1.7314030185 -0.010280451857 -0.0027716723652 1.7315818219 -0.010201365076
          -0.0040058641914 1.7318750194 -0.010766188952 -0.0008084925337 1.7316608438 -0.010771349243
          -0.002057486433 1.7310239379 -0.010190029449 -0.0016175021461 1.7304389413 -0.010269732816
          -0.001945276524 1.7301787694 -0.010433851414 -0.0014345881133 1.72981686 -0.0098465203163
          -0.0027852162462 1.7319433028 -0.010509696665 -0.0033144145459 1.7310170235 -0.01075835313
          -0.0028002650876 1.7316085181 -0.010166906375 -0.0032145403055 1.7314233816 -0.010522942037
          -0.0032998240384 1.7321827397 -0.0099837642259 -0.001157446111 1.731935528 -0.0099999839977
          -0.0012217682688 1.7308489667 -0.010507969411 -0.0016137673134 1.7306654282 -0.010146562385
          -0.0011168670206 1.7296778118 -0.010768547311 -0.0016741035978 1.7302408811 -0.010518041559
          -0.0017555637031 1.7326018172 -0.010606755713 -0.0017248920633 1.731169456 -0.011430816037
          -0.0029001207852 1.7314147052 -0.010363388628 -0.0026005890221 1.7312500747 -0.010431651415
          -0.0023052266196 1.7314708045 -0.010199323576 -0.0017566103116 1.731246779 -0.010208166597
          -0.0015058737249 1.7306692191 -0.010403464028 -0.0012023952105 1.7304675268 -0.010341094399
          -0.0023220879078 1.7298579473 -0.011401824309 -0.0022652172272 1.7308951523 -0.010619150151
          -0.0015562729023 1.7317321527 -0.011369973444 -0.0046896306076 1.7299988088 -0.010197328931
          -0.00099133742867 1.7305187815 -0.011303802713 -0.0025647078055 1.7300432883 -0.0111112281
          -0.0035576079646 1.730715873 -0.012267096061 -9.8975452694e-05 1.7305043046 -0.01229989026
          -0.001156555782 1.7294715385 -0.011085380091 -0.0027148641785 1.7295933641 -0.011229148592
          0.00094766963812 1.7286655654 -0.010224917549 -0.0018575263829 1.7298300651 -0.011396314035
          -0.0032302913054 1.7326598922 -0.008668633058 -0.0031823784737 1.7323731535 -0.0086785401876
          -0.0036421319045 1.7322576012 -0.0084743394431 -0.0033570529967 1.7318693561 -0.0084327534795
          -0.003480971361 1.7319564224 -0.0086101409671 -0.0036098613858 1.7317653554 -0.0086222829786
          -0.0037393449379 1.7312682855 -0.0084061441012 -0.0034170425658 1.7313221901 -0.0084784672921
          -0.0038528578759 1.7310526462 -0.0086647353082 -0.0038219025293 1.7310155624 -0.0086380717734
          -0.0035344047442 1.7328216095 -0.0094521734334 -0.0033728658726 1.7324929197 -0.0089227309352
          -0.0032767125344 1.7322036032 -0.0088266871506 -0.0032542516389 1.7319369506 -0.0087438186414
          -0.0033239355023 1.7319237204 -0.0087946234911 -0.0034230089405 1.7317241812 -0.0087588362718
          -0.0034627472737 1.7313388141 -0.0087251448356 -0.0034295823506 1.7312614291 -0.008828858104
          -0.0032939680314 1.7312088013 -0.0089167134105 -0.0031324635397 1.7312158569 -0.0093788141691
          -0.0031974254655 1.732244879 -0.0092114184118 -0.0030002313227 1.7319570179 -0.0091150921987
          -0.0031269969193 1.7321130228 -0.0090888910055 -0.0031687391028 1.732019799 -0.0091247825964
          -0.0031584274066 1.7318724129 -0.0091112915154 -0.0032177152369 1.7316724444 -0.0091240553185
          -0.003196942049 1.7314502045 -0.0090926087699 -0.0032031885254 1.7311516797 -0.0090912389068
          -0.0033158311631 1.730649107 -0.0091141797343 -0.0030766094441 1.7305986955 -0.0091845309955
          -0.0029621956152 1.7319440712 -0.0095313944647 -0.0031419856127 1.732087225 -0.0094738556734
          -0.0030255209647 1.7319981662 -0.0095204379712 -0.0029956778394 1.7319918043 -0.0094565363805
          -0.0029621155492 1.7319755106 -0.0094153796301 -0.0030393452785 1.7318007669 -0.0094464523462
          -0.0030119362115 1.7314057148 -0.0093962886538 -0.0029254048748 1.7310437241 -0.0095138655664
          -0.0028029535037 1.7307621339 -0.00946215037 -0.002969723872 1.73023996 -0.0094965338858
          -0.0031628685114 1.7316163735 -0.0096082856923 -0.003042666148 1.7319664247 -0.0097984680548
          -0.0030316277826 1.7319693019 -0.0097531851586 -0.0028601058127 1.7319709572 -0.0097107137393
          -0.0028006828499 1.7319371157 -0.009679965731 -0.0028505179818 1.7317485377 -0.0096705987317