<?xml version="1.0"?>
<VTKFile type="UnstructuredGrid" version="0.1" byte_order="LittleEndian" compressor="vtkZLibDataCompressor">
  <UnstructuredGrid>
    <FieldData>
      <DataArray type="Float64" Name="TIME" NumberOfTuples="1" format="ascii" RangeMin="0.31528769782" RangeMax="0.31528769782">
        0.31528769782
      </DataArray>
    </FieldData>
    <Piece NumberOfPoints="1000" NumberOfCells="0">
      <PointData>
        <DataArray type="Float64" Name="Damage" format="ascii" RangeMin="0" RangeMax="0.49719101124">
          0 0 0 0 0 0
          0 0 0 0 0 0.027932960894
          0 0 0 0 0 0
          0.027932960894 0 0 0.055084745763 0.071428571429 0.040345821326
          0.014164305949 0.012987012987 0.040345821326 0.071428571429 0.055084745763 0
          0 0.067669172932 0.11239193084 0.1074168798 0.037688442211 0.034562211982
          0.1074168798 0.11239193084 0.067669172932 0 0 0.074349442379
          0.16147308782 0.16834170854 0.12376237624 0.11286681716 0.16834170854 0.16147308782
          0.074349442379 0 0 0.084459459459 0.2 0.25806451613
          0.33860045147 0.39211618257 0.25806451613 0.2 0.084459459459 0
          0 0.093984962406 0.25360230548 0.36061381074 0.41959798995 0.46774193548
          0.36061381074 0.25360230548 0.093984962406 0 0 0.10593220339
          0.31493506494 0.40057636888 0.4447592068 0.49090909091 0.40057636888 0.31493506494
          0.10593220339 0 0 0.16759776536 0.3686440678 0.43984962406
          0.44609665428 0.49662162162 0.43984962406 0.3686440678 0.16759776536 0
          0 0.1677852349 0.36734693878 0.43891402715 0.44642857143 0.49593495935
          0.43891402715 0.36734693878 0.1677852349 0 0 0
          0 0 0 0 0 0
          0 0 0 0.027906976744 0 0
          0 0 0 0 0.027906976744 0
          0 0.056338028169 0.072776280323 0.040669856459 0.014117647059 0.012931034483
          0.040669856459 0.072776280323 0.056338028169 0 0 0.06875
          0.11483253589 0.10828025478 0.0375782881 0.034416826004 0.10828025478 0.11483253589
          0.06875 0 0 0.074303405573 0.16235294118 0.16910229645
          0.12371134021 0.11257035647 0.16910229645 0.16235294118 0.074303405573 0
          0 0.084269662921 0.20043103448 0.25812619503 0.33771106942 0.39242685026
          0.25812619503 0.20043103448 0.084269662921 0 0 0.09375
          0.25358851675 0.36093418259 0.41962421712 0.46845124283 0.36093418259 0.25358851675
          0.09375 0 0 0.10563380282 0.3153638814 0.4019138756
          0.44470588235 0.49137931034 0.4019138756 0.3153638814 0.10563380282 0
          0 0.16744186047 0.36971830986 0.440625 0.44582043344 0.49719101124
          0.440625 0.36971830986 0.16744186047 0 0 0.16759776536
          0.3686440678 0.43984962406 0.44609665428 0.49662162162 0.43984962406 0.3686440678
          0.16759776536 0 0 0 0 0
          0 0 0 0 0 0
          0 0.024647887324 0 0 0 0
          0 0 0.024647887324 0 0 0.051212938005
          0.06875 0.038817005545 0.012635379061 0.011666666667 0.038817005545 0.06875
          0.051212938005 0 0 0.064593301435 0.10905730129 0.10491803279
          0.036858974359 0.034023668639 0.10491803279 0.10905730129 0.064593301435 0
          0 0.070588235294 0.15523465704 0.16506410256 0.12283464567 0.11271676301
          0.16506410256 0.15523465704 0.070588235294 0 0 0.081896551724
          0.19333333333 0.25443786982 0.33959537572 0.38985313752 0.25443786982 0.19333333333
          0.081896551724 0 0 0.093301435407 0.24768946396 0.35573770492
          0.41987179487 0.46449704142 0.35573770492 0.24768946396 0.093301435407 0
          0 0.10781671159 0.30833333333 0.39556377079 0.4440433213 0.48666666667
          0.39556377079 0.30833333333 0.10781671159 0 0 0.16197183099
          0.35579514825 0.43062200957 0.44470588235 0.49137931034 0.43062200957 0.35579514825
          0.16197183099 0 0 0.16101694915 0.3538961039 0.42939481268
          0.4447592068 0.49090909091 0.42939481268 0.3538961039 0.16101694915 0
          0 0 0 0 0 0
          0 0 0 0 0 0.025
          0 0 0 0 0 0
          0.025 0 0 0.05023923445 0.068391866913 0.039344262295
          0.012820512821 0.011834319527 0.039344262295 0.068391866913 0.05023923445 0
          0 0.063694267516 0.10819672131 0.10465116279 0.036984352774 0.034120734908
          0.10465116279 0.10819672131 0.063694267516 0 0 0.070981210856
          0.15544871795 0.16500711238 0.12290502793 0.11282051282 0.16500711238 0.15544871795
          0.070981210856 0 0 0.082217973231 0.19378698225 0.25459317585
          0.33974358974 0.38981042654 0.25459317585 0.19378698225 0.082217973231 0
          0 0.093418259023 0.24918032787 0.35610465116 0.41963015647 0.46456692913
          0.35610465116 0.24918032787 0.093418259023 0 0 0.10765550239
          0.30868761553 0.39508196721 0.44391025641 0.48668639053 0.39508196721 0.30868761553
          0.10765550239 0 0 0.1625 0.35645933014 0.43099787686
          0.44467640919 0.4913957935 0.43099787686 0.35645933014 0.1625 0
          0 0.16165413534 0.35446685879 0.42966751918 0.44472361809 0.49078341014
          0.42966751918 0.35446685879 0.16165413534 0 0 0
          0 0 0 0 0 0
          0 0 0 0.02786377709 0 0
          0 0 0 0 0.02786377709 0
          0 0.054117647059 0.070397111913 0.040064102564 0.014173228346 0.013005780347
          0.040064102564 0.070397111913 0.054117647059 0 0 0.066805845511
          0.11057692308 0.106685633 0.037709497207 0.034615384615 0.106685633 0.11057692308
          0.066805845511 0 0 0.074226804124 0.16062992126 0.16759776536
          0.12362637363 0.11292346299 0.16759776536 0.16062992126 0.074226804124 0
          0 0.084427767355 0.19942196532 0.25769230769 0.33877038896 0.39145496536
          0.25769230769 0.19942196532 0.084427767355 0 0 0.093945720251
          0.25320512821 0.35988620199 0.41899441341 0.46666666667 0.35988620199 0.25320512821
          0.093945720251 0 0 0.10588235294 0.31407942238 0.39903846154
          0.44409448819 0.48988439306 0.39903846154 0.31407942238 0.10588235294 0
          0 0.16718266254 0.36705882353 0.43841336117 0.44536082474 0.49530956848
          0.43841336117 0.36705882353 0.16718266254 0 0 0.16728624535
          0.36543909348 0.43718592965 0.44554455446 0.49435665914 0.43718592965 0.36543909348
          0.16728624535 0 0 0 0 0
          0 0 0 0 0 0
          0 0.025280898876 0 0 0 0
          0 0 0.025280898876 0 0 0.049568965517
          0.066666666667 0.038461538462 0.013005780347 0.012016021362 0.038461538462 0.066666666667
          0.049568965517 0 0 0.06309751434 0.1050295858 0.10367454068
          0.037179487179 0.034360189573 0.10367454068 0.1050295858 0.06309751434 0
          0 0.071294559099 0.15462427746 0.1641025641 0.12296110414 0.11316397229
          0.1641025641 0.15462427746 0.071294559099 0 0 0.082616179002
          0.19359145527 0.25473933649 0.34064665127 0.38930481283 0.25473933649 0.19359145527
          0.082616179002 0 0 0.093690248566 0.24852071006 0.35564304462
          0.41923076923 0.46327014218 0.35564304462 0.24852071006 0.093690248566 0
          0 0.10775862069 0.30833333333 0.39349112426 0.4436416185 0.48598130841
          0.39349112426 0.30833333333 0.10775862069 0 0 0.16292134831
          0.35560344828 0.43021032505 0.44465290807 0.49053356282 0.43021032505 0.35560344828
          0.16292134831 0 0 0.16216216216 0.35324675325 0.42857142857
          0.44469525959 0.48962655602 0.42857142857 0.35324675325 0.16216216216 0
          0 0 0 0 0 0
          0 0 0 0 0 0.025
          0 0 0 0 0 0
          0.025 0 0 0.05023923445 0.068391866913 0.039344262295
          0.012820512821 0.011834319527 0.039344262295 0.068391866913 0.05023923445 0
          0 0.063694267516 0.10819672131 0.10465116279 0.036984352774 0.034120734908
          0.10465116279 0.10819672131 0.063694267516 0 0 0.070981210856
          0.15544871795 0.16500711238 0.12290502793 0.11282051282 0.16500711238 0.15544871795
          0.070981210856 0 0 0.082217973231 0.19378698225 0.25459317585
          0.33974358974 0.38981042654 0.25459317585 0.19378698225 0.082217973231 0
          0 0.093418259023 0.24918032787 0.35610465116 0.41963015647 0.46456692913
          0.35610465116 0.24918032787 0.093418259023 0 0 0.10765550239
          0.30868761553 0.39508196721 0.44391025641 0.48668639053 0.39508196721 0.30868761553
          0.10765550239 0 0 0.1625 0.35645933014 0.43099787686
          0.44467640919 0.4913957935 0.43099787686 0.35645933014 0.1625 0
          0 0.16165413534 0.35446685879 0.42966751918 0.44472361809 0.49078341014
          0.42966751918 0.35446685879 0.16165413534 0 0 0
          0 0 0 0 0 0
          0 0 0 0.024647887324 0 0
          0 0 0 0 0.024647887324 0
          0 0.051212938005 0.06875 0.038817005545 0.012635379061 0.011666666667
          0.038817005545 0.06875 0.051212938005 0 0 0.064593301435
          0.10905730129 0.10491803279 0.036858974359 0.034023668639 0.10491803279 0.10905730129
          0.064593301435 0 0 0.070588235294 0.15523465704 0.16506410256
          0.12283464567 0.11271676301 0.16506410256 0.15523465704 0.070588235294 0
          0 0.081896551724 0.19333333333 0.25443786982 0.33959537572 0.38985313752
          0.25443786982 0.19333333333 0.081896551724 0 0 0.093301435407
          0.24768946396 0.35573770492 0.41987179487 0.46449704142 0.35573770492 0.24768946396
          0.093301435407 0 0 0.10781671159 0.30833333333 0.39556377079
          0.4440433213 0.48666666667 0.39556377079 0.30833333333 0.10781671159 0
          0 0.16197183099 0.35579514825 0.43062200957 0.44470588235 0.49137931034
          0.43062200957 0.35579514825 0.16197183099 0 0 0.16101694915
          0.3538961039 0.42939481268 0.4447592068 0.49090909091 0.42939481268 0.3538961039
          0.16101694915 0 0 0 0 0
          0 0 0 0 0 0
          0 0.027906976744 0 0 0 0
          0 0 0.027906976744 0 0 0.056338028169
          0.072776280323 0.040669856459 0.014117647059 0.012931034483 0.040669856459 0.072776280323
          0.056338028169 0 0 0.06875 0.11483253589 0.10828025478
          0.0375782881 0.034416826004 0.10828025478 0.11483253589 0.06875 0
          0 0.074303405573 0.16235294118 0.16910229645 0.12371134021 0.11257035647
          0.16910229645 0.16235294118 0.074303405573 0 0 0.084269662921
          0.20043103448 0.25812619503 0.33771106942 0.39242685026 0.25812619503 0.20043103448
          0.084269662921 0 0 0.09375 0.25358851675 0.36093418259
          0.41962421712 0.46845124283 0.36093418259 0.25358851675 0.09375 0
          0 0.10563380282 0.3153638814 0.4019138756 0.44470588235 0.49137931034
          0.4019138756 0.3153638814 0.10563380282 0 0 0.16744186047
          0.36971830986 0.440625 0.44582043344 0.49719101124 0.440625 0.36971830986
          0.16744186047 0 0 0.16759776536 0.3686440678 0.43984962406
          0.44609665428 0.49662162162 0.43984962406 0.3686440678 0.16759776536 0
          0 0 0 0 0 0
          0 0 0 0 0 0.027932960894
          0 0 0 0 0 0
          0.027932960894 0 0 0.055084745763 0.071428571429 0.040345821326
          0.014164305949 0.012987012987 0.040345821326 0.071428571429 0.055084745763 0
          0 0.067669172932 0.11239193084 0.1074168798 0.037688442211 0.034562211982
          0.1074168798 0.11239193084 0.067669172932 0 0 0.074349442379
          0.16147308782 0.16834170854 0.12376237624 0.11286681716 0.16834170854 0.16147308782
          0.074349442379 0 0 0.084459459459 0.2 0.25806451613
          0.33860045147 0.39211618257 0.25806451613 0.2 0.084459459459 0
          0 0.093984962406 0.25360230548 0.36061381074 0.41959798995 0.46774193548
          0.36061381074 0.25360230548 0.093984962406 0 0 0.10593220339
          0.31493506494 0.40057636888 0.4447592068 0.49090909091 0.40057636888 0.31493506494
          0.10593220339 0 0 0.16759776536 0.3686440678 0.43984962406
          0.44609665428 0.49662162162 0.43984962406 0.3686440678 0.16759776536 0
          0 0.1677852349 0.36734693878 0.43891402715 0.44642857143 0.49593495935
          0.43891402715 0.36734693878 0.1677852349 0
        </DataArray>
        <DataArray type="Float64" Name="Displacement" NumberOfComponents="3" format="ascii" RangeMin="0.97665832322" RangeMax="0.99674537693">
          -0.0095708701551 0.98168932532 -0.028505378856 -0.011737198985 0.98493016288 -0.03176722378
          -0.011949388371 0.98087569345 -0.027841158841 -0.012222875852 0.98164589823 -0.029515109019
          -0.011995159705 0.98167070137 -0.030394458894 -0.011734096252 0.98031998651 -0.029483283859
          -0.011496757587 0.97990843769 -0.02968840163 -0.011878619778 0.97794653428 -0.027973764704
          -0.012160992879 0.98083878363 -0.031656458364 -0.014223061402 0.97613598366 -0.028595912991
          -0.013273242162 0.98291799121 -0.028366036678 -0.01146578545 0.98495935678 -0.03116865046
          -0.011795668801 0.9821377663 -0.02965557913 -0.011105764844 0.98166005344 -0.030364717724
          -0.011432133102 0.98126829199 -0.030363551753 -0.01138939267 0.98072499149 -0.030253074866
          -0.011438305646 0.98004730031 -0.030426924783 -0.010833554755 0.97883523174 -0.029302773435
          -0.011194181223 0.98075057749 -0.031013561622 -0.0092112483114 0.97759751409 -0.028215226357
          -0.010510320274 0.98355322198 -0.030535046523 -0.0092187624559 0.98361788604 -0.032307049261
          -0.010327744688 0.98256925695 -0.031072982162 -0.010979109421 0.98227264522 -0.031353888091
          -0.010726242213 0.98221994962 -0.03206069236 -0.010677928504 0.9817484291 -0.032291757303
          -0.010423056156 0.98061134729 -0.031277134324 -0.01117610921 0.97952515586 -0.031079876878
          -0.012371519312 0.9795819508 -0.032308405907 -0.010974408429 0.97837512986 -0.030527949701
          -0.009171457072 0.98479209027 -0.032438160533 -0.010241012248 0.98374053448 -0.032758961758
          -0.010169980876 0.98275211621 -0.032116206476 -0.0098653027171 0.98263924378 -0.032355901983
          -0.010417809814 0.98157617935 -0.03238030057 -0.010121408109 0.9812844572 -0.03227895381
          -0.010179536152 0.9808331626 -0.032366959393 -0.0099947081609 0.97990510375 -0.032124680762
          -0.010088497283 0.97951095352 -0.032721694948 -0.011003296925 0.97956175979 -0.032267516958
          -0.0096944859857 0.9850859748 -0.032078687161 -0.0093449603837 0.98429726343 -0.032756461968
          -0.0094894821831 0.98257606642 -0.032871257451 -0.0092688070521 0.98225564286 -0.032927187381
          -0.0091359320233 0.98207122899 -0.033400821089 -0.0096137662474 0.98096217772 -0.033394569322
          -0.010006010806 0.98072310132 -0.033023253256 -0.0095831039282 0.97978844951 -0.032759365105
          -0.0097675209335 0.97995628267 -0.032726619579 -0.0093070916091 0.97975011207 -0.031934321842
          -0.009105180943 0.9837256911 -0.032226293458 -0.0085729595162 0.98378014219 -0.034604611829
          -0.0085284765929 0.98287181691 -0.033677893134 -0.0090861569692 0.98230545694 -0.03376475605
          -0.008910476255 0.98096515157 -0.035083288245 -0.0088762974709 0.98030680265 -0.0351898816
          -0.008762727976 0.98043311805 -0.03376305649 -0.0094074888547 0.98012303325 -0.033550049856
          -0.0093284680589 0.9797135311 -0.03463960837 -0.008827764573 0.97837662972 -0.03213480463
          -0.007135685584 0.98318231979 -0.035256199323 -0.0087108215918 0.98458356997 -0.034323209939
          -0.007736381567 0.98220042562 -0.035158296077 -0.0084274993963 0.98239201045 -0.035048867261
          -0.0081899792547 0.9802219625 -0.03423043992 -0.0084714759284 0.97964473358 -0.034307914367
          -0.0082585120238 0.98066664408 -0.03485146577 -0.0090781938569 0.97932813223 -0.03513846931
          -0.0080458209004 0.98046600961 -0.034289074687 -0.0095743715555 0.97795567941 -0.035103005925
          -0.0058621019516 0.98346199503 -0.036444930042 -0.0090884184066 0.98346467421 -0.034230641612
          -0.0090691980917 0.98301799329 -0.035308085556 -0.0058792204341 0.98290426563 -0.034425532857
          -0.0090131645226 0.98115752451 -0.036718875703 -0.0065749612211 0.98057749508 -0.036740088687
          -0.0096708244229 0.98117445274 -0.034461715637 -0.0063931610842 0.98009137552 -0.035283629017
          -0.0065982138139 0.97936648174 -0.034249798702 -0.0097489321825 0.97825986187 -0.036356277918
          -0.0057003540063 0.98490787126 -0.034478731349 -0.0096561085355 0.98651748656 -0.03117861935
          -0.0094453046344 0.98369443103 -0.035561069043 -0.0043515124777 0.98292931753 -0.03406590147
          -0.0053835463655 0.98032250231 -0.038638570531 -0.0090014740608 0.97947901855 -0.038392646548
          -0.0098899753348 0.98132645633 -0.034123337411 -0.0048776884265 0.98085485708 -0.035406040722
          -0.0049404869985 0.98237315193 -0.031190876218 -0.0085388705207 0.97961772129 -0.034149553702
          -0.0038075449112 0.98774583324 -0.03446479271 -0.0051157733763 0.98965634158 -0.033063040882
          -0.0041195793454 0.98249789586 -0.036948384087 -0.0037570708695 0.9799782122 -0.038361618171
          0.00081462795317 0.97692410367 -0.033878343272 -0.014275816991 0.97600095592 -0.034293687966
          -0.0095964750809 0.97827881025 -0.038368843784 -0.0092422743575 0.97950555257 -0.037030007265
          -0.0081429838344 0.98570869625 -0.032902241738 -0.0091935554421 0.9822317973 -0.034398420192
          -0.012033599567 0.98284987514 -0.02932636888 -0.011020545605 0.98303031114 -0.028511930602
          -0.011694635407 0.98343408702 -0.029767345255 -0.011764800296 0.98264143106 -0.02910198182
          -0.01175349692 0.98203219249 -0.029201077078 -0.011906297195 0.98142138008 -0.029204714084
          -0.012005982194 0.98093878856 -0.02926269491 -0.012114779162 0.98027927375 -0.029512494688
          -0.012776040387 0.97885230012 -0.028378326967 -0.011796196898 0.97744807938 -0.029411062151
          -0.01032691925 0.98528161636 -0.03204021957 -0.011247219726 0.98476083472 -0.030566036275
          -0.010744138316 0.98316967648 -0.030783076594 -0.011107215237 0.98297926673 -0.030811666185
          -0.011265844608 0.98203366712 -0.030365812473 -0.011385904885 0.98210544891 -0.030906871321
          -0.011532564843 0.98106008134 -0.030680765182 -0.011871708431 0.98014456411 -0.030736038922
          -0.011407230053 0.98074009027 -0.030512561919 -0.012396696928 0.98020923787 -0.032197942148
          -0.010857441558 0.98502086461 -0.030261327075 -0.010739333345 0.98414401923 -0.031019362866
          -0.010768709187 0.98334316705 -0.030953935855 -0.010733741015 0.98284774324 -0.031403568502
          -0.010736493975 0.98213621694 -0.031431970599 -0.010735154591 0.98162506484 -0.031456318677
          -0.010737205863 0.98104865832 -0.031338254521 -0.010756779593 0.98051086917 -0.031084880151
          -0.010733113281 0.98009250959 -0.030935737911 -0.010602458051 0.97971315357 -0.030245312058
          -0.010306376828 0.98580353372 -0.032417637263 -0.010202075371 0.98411781575 -0.03212346971
          -0.0099783504105 0.98351392491 -0.032320763587 -0.010452832439 0.98247100549 -0.031547074482
          -0.01017878195 0.98213737744 -0.032394534764 -0.010155022567 0.98153646902 -0.03232191325
          -0.0098118650097 0.98072087995 -0.031505071621 -0.010296187655 0.98059617048 -0.032240614282
          -0.010091347271 0.98004538647 -0.032042179059 -0.010014378618 0.98055991536 -0.032368750543
          -0.0093388431925 0.98496200355 -0.032715225191 -0.0092828139855 0.98418826977 -0.032961260929
          -0.0095806684655 0.98336831252 -0.032960715304 -0.0092731421843 0.98303402206 -0.033122723301
          -0.0097382071335 0.98186091834 -0.03343627943 -0.0094739610794 0.98134967338 -0.033266376656
          -0.0097899122713 0.98124991677 -0.033061889301 -0.0095333288317 0.98047824097 -0.032907599435
          -0.009746251031 0.98011566749 -0.032994801376 -0.0097971674772 0.9796983601 -0.032685184288
          -0.0092564852191 0.98446433026 -0.032593155141 -0.0083619898058 0.98421196755 -0.034204029603
          -0.0086973138351 0.98358421553 -0.03372621908 -0.0090038142151 0.98273237668 -0.033984330197
          -0.0085178890827 0.98216553054 -0.0339781877 -0.0095037903732 0.98156523882 -0.034016456126
          -0.0091942525423 0.98108440053 -0.033996324565 -0.009261096386 0.98071108689 -0.033639975698
          -0.0096192309636 0.98012347744 -0.034113910256 -0.0086550193982 0.97920631129 -0.032550318761
          -0.0075599419976 0.98600647862 -0.034196701614 -0.0076044305928 0.98436855017 -0.034581861578
          -0.0083191034882 0.98360536204 -0.034514448043 -0.0090029242185 0.98246811681 -0.03539786885
          -0.0077943865606 0.98198488175 -0.034661838825 -0.009179095576 0.98139478668 -0.0348954348
          -0.0078237019267 0.98070693392 -0.035445727491 -0.008480111775 0.98069966554 -0.034487179591
          -0.0091291225379 0.98027366971 -0.034535350963 -0.0091675128793 0.98079620993 -0.034153265411
          -0.0057924261633 0.98552278368 -0.036138147483 -0.0063405214695 0.98547247222 -0.034733153567
          -0.0078322687297 0.98356147103 -0.035431667922 -0.0071704600739 0.98264427129 -0.036174994706
          -0.0066726999238 0.98211725026 -0.035002093037 -0.0088760860295 0.98158820164 -0.034949695328
          -0.0084991650564 0.98097236183 -0.036081316888 -0.0077073614076 0.98071134744 -0.035368897011
          -0.0092934774298 0.98143309516 -0.034697632101 -0.0098638028017 0.98026577801 -0.036108499157
          -0.0069111597996 0.9854539805 -0.035361311569 -0.007556494916 0.98336609621 -0.036461783569
          -0.0064471289924 0.98443279908 -0.035500493658 -0.0060652292016 0.98352923395 -0.035238561831
          -0.0072796751712 0.9824941032 -0.03722301834 -0.0071303915185 0.98192413462 -0.037215879967
          -0.0084095959871 0.98178901691 -0.035221217707 -0.0079936060135 0.98153599463 -0.035422066652
          -0.0068955783493 0.97931599988 -0.036344321479 -0.0074129522437 0.9800776387 -0.035270397402
          -0.008651046808 0.98160437034 -0.04029365623 -0.0011934132317 0.98806593267 -0.036869465178
          -0.0055974551589 0.98319066639 -0.037629126191 -0.0031727403721 0.98339603164 -0.03668208018
          -0.0053620627565 0.97989255342 -0.039934663047 -0.0079543521066 0.9792342195 -0.040072014333
          -0.010016328238 0.98151968755 -0.036822506733 -0.0075604537169 0.98020611188 -0.037719607353
          -0.012193174863 0.98423224393 -0.036465069254 -0.0046013929671 0.97620552247 -0.040091688394
          -0.012404578965 0.98618405264 -0.029854920698 -0.01123927601 0.98436521636 -0.029494794176
          -0.011488671674 0.98395130805 -0.029472237814 -0.012351419639 0.98423877695 -0.030043749685
          -0.011890888757 0.98262529835 -0.0293696993 -0.011807641438 0.98242797792 -0.029475447115
          -0.011474017561 0.98258474037 -0.030114377579 -0.012311539538 0.98102275236 -0.029420018248
          -0.012563101833 0.98022920528 -0.029459024796 -0.01130208665 0.98108503761 -0.029758662057
          -0.010400683071 0.98418123393 -0.030458402155 -0.010718474037 0.9851051457 -0.031061828128
          -0.011097048524 0.98415736434 -0.030624207895 -0.011255356718 0.98364919703 -0.030562696735
          -0.011290579224 0.98293249052 -0.030468460388 -0.011333972142 0.9824748051 -0.030543888432
          -0.011350748275 0.98184293648 -0.030468193711 -0.011484956829 0.98133544568 -0.030630339412
          -0.011974586884 0.98105190496 -0.031018781464 -0.012401950197 0.97888653398 -0.030385326424
          -0.010367570866 0.98532294568 -0.031248701701 -0.010685422691 0.9851184678 -0.031344236619
          -0.010848868385 0.98422603843 -0.031174360098 -0.010785997769 0.98369269152 -0.031417533391
          -0.010713787645 0.98293869762 -0.031385804916 -0.010782835189 0.98232536326 -0.03137161982
          -0.010702332577 0.98195368077 -0.031374533554 -0.010652946931 0.98134808883 -0.031167707926
          -0.010783194143 0.98103933227 -0.031290855873 -0.011125317982 0.98008365279 -0.031181900689
          -0.0098430048397 0.98573322071 -0.032197297033 -0.010044580302 0.98512113736 -0.03223481365
          -0.010188808623 0.98433439991 -0.032110800271 -0.010131755222 0.9836702038 -0.032235584103
          -0.010066358999 0.98294453078 -0.032269287629 -0.010109119574 0.98231241572 -0.032196881311
          -0.010152617179 0.98190744992 -0.032208634896 -0.010124259827 0.98142552482 -0.032097745812
          -0.010321132459 0.98103878754 -0.032190018577 -0.010471459793 0.98040868253 -0.032027325045
          -0.0095955772468 0.98591805309 -0.032597503975 -0.009207335464 0.98516286102 -0.033027187757
          -0.0092682670522 0.98435120248 -0.03301061613 -0.0093926893601 0.98379637128 -0.033093757971
          -0.0095397662181 0.98295553615 -0.033097234728 -0.0096399147897 0.98229548045 -0.033057827643
          -0.0097098117867 0.98206595175 -0.033045169084 -0.0099372120461 0.98148214075 -0.032989962264
          -0.0098951292384 0.98107872342 -0.032966639056 -0.0096044939028 0.98062678704 -0.032493276532
          -0.0089219311855 0.98579640711 -0.033320209165 -0.0085738276909 0.98514886344 -0.033825490228
          -0.0086526280815 0.98441638137 -0.033845906794 -0.00842846353 0.98373215289 -0.033879695461
          -0.0080194066745 0.98305214857 -0.033556782312 -0.0098383833064 0.98246495827 -0.033617598238
          -0.0095740284177 0.98197621326 -0.033842263806 -0.0092817750679 0.98151520554 -0.033789099568
          -0.0093453924362 0.98106375281 -0.033739615033 -0.0090070176746 0.98058901772 -0.033169297218
          -0.0071427503332 0.98585636615 -0.035315603638 -0.0070975710967 0.98528996559 -0.034926855726
          -0.0079270802626 0.98436105924 -0.034671326072 -0.0070592745406 0.98379136083 -0.034452810393
          -0.0079874061422 0.98286309337 -0.034969035708 -0.0088992077372 0.98230504687 -0.034899974937
          -0.009752257169 0.98200673567 -0.034547022777 -0.008867661291 0.98145574656 -0.03464921357
          -0.0096797936064 0.98125478937 -0.034850823162 -0.0096446959263 0.98056453849 -0.035195217876
          -0.0068063767033 0.98634115903 -0.035142730343 -0.0058968823205 0.98564111694 -0.035567331521
          -0.0072869251676 0.98440491629 -0.035274210155 -0.006661155497 0.98326617663 -0.035915503396
          -0.0068649348338 0.98291522236 -0.035367263527 -0.0086978243212 0.98234673865 -0.035355148603
          -0.0090142314005 0.98154928611 -0.035835098251 -0.0084321831643 0.98149180484 -0.035249791118
          -0.0096663338367 0.98159650283 -0.035490169904 -0.008785282213 0.98107782883 -0.034965542809
          -0.0068523258974 0.98470099269 -0.036093740268 -0.005633222485 0.98563298316 -0.035997563582
          -0.0067111292856 0.98450688869 -0.036156468037 -0.00591082683 0.98330677779 -0.036294181239
          -0.0055240937153 0.98168853832 -0.036398077565 -0.0089578848771 0.98108574423 -0.036402676959
          -0.0085544825876 0.98159334414 -0.036281297915 -0.0077855869902 0.98157013987 -0.036138678189
          -0.0088255274007 0.98148866341 -0.035947173193 -0.0074456697223 0.97924271792 -0.035991549102
          -0.003876643992 0.9864682235 -0.038502160557 -0.0036236865057 0.98611662302 -0.03704811355
          -0.0060834399289 0.98387563275 -0.037375394419 -0.0041249654219 0.98225139715 -0.037304567222
          -0.0069177863407 0.98434445662 -0.037824369055 -0.0061717595386 0.98392051453 -0.037856011196
          -0.0090847346342 0.98053848435 -0.037286554978 -0.0072325453482 0.98097692721 -0.037398913283
          -0.0095523656212 0.98197342407 -0.036955185909 -0.0092371028747 0.98120546474 -0.038329813165
          -0.011804205152 0.986660164 -0.030173353996 -0.011626521834 0.98571499923 -0.029855113377
          -0.011832521004 0.98494747906 -0.029820124451 -0.012123719416 0.9848793235 -0.030015676049
          -0.011938152198 0.98359825898 -0.029556720231 -0.012033099355 0.98320620034 -0.029718582965
          -0.011526252779 0.98316645937 -0.029927777567 -0.012025495376 0.98197393441 -0.029671021045
          -0.012240961752 0.98155760064 -0.029751292612 -0.012006092873 0.98140950074 -0.030083969733
          -0.011257897878 0.98619007365 -0.03053431488 -0.011690614744 0.98593962131 -0.030433512034
          -0.011344495818 0.98493747941 -0.03048047324 -0.011265706165 0.98435211191 -0.030511925862
          -0.011340934483 0.98377415888 -0.030551881735 -0.011344619552 0.98321915009 -0.030514303697
          -0.011401959893 0.98255819317 -0.030452279145 -0.011334022048 0.98207063125 -0.030430876111
          -0.010957292595 0.98179852322 -0.030344423529 -0.01153436975 0.98088637254 -0.030385346521
          -0.011290386081 0.9871621995 -0.031248200608 -0.010475383445 0.98568635841 -0.031384765348
          -0.010773332105 0.98515455656 -0.031416515585 -0.010741846656 0.98442830643 -0.031448438831
          -0.010765851311 0.98379498208 -0.031374968152 -0.010700806418 0.98318341302 -0.031376734186
          -0.010737852455 0.98266617721 -0.031374704734 -0.010685176258 0.98222696223 -0.031364910933
          -0.010958055177 0.98164276919 -0.031337691411 -0.010223366658 0.98186951119 -0.031180425525
          -0.0099309878248 0.98679217498 -0.0324674541 -0.0095748999635 0.98581033594 -0.032349720099
          -0.010057992068 0.98515632619 -0.032236992519 -0.01015779824 0.98436331984 -0.032316086181
          -0.010166957735 0.98370115919 -0.032309494028 -0.010152929117 0.98319714139 -0.03233958093
          -0.010164989403 0.98262663615 -0.032247323235 -0.010275999805 0.98223850863 -0.032178664741
          -0.010662611098 0.98172024596 -0.032274455362 -0.010520410816 0.98145199686 -0.032438992827
          -0.0091914770212 0.98665921342 -0.033026928894 -0.009479786814 0.98582466906 -0.032949687928
          -0.0092950563036 0.9852377835 -0.033110860614 -0.0094612016992 0.9845683191 -0.032923592511
          -0.0095464791376 0.98374390772 -0.033117145586 -0.0096308901612 0.98309128743 -0.03309111395