<?xml version="1.0"?>
<VTKFile type="UnstructuredGrid" version="0.1" byte_order="LittleEndian" compressor="vtkZLibDataCompressor">
  <UnstructuredGrid>
    <FieldData>
      <DataArray type="Float64" Name="TIME" NumberOfTuples="1" format="ascii" RangeMin="0.23312369424" RangeMax="0.23312369424">
        0.23312369424
      </DataArray>
    </FieldData>
    <Piece NumberOfPoints="1000" NumberOfCells="0">
      <PointData>
        <DataArray type="Float64" Name="Damage" format="ascii" RangeMin="0" RangeMax="0.49719101124">
          0 0 0 0 0 0
          0 0 0 0 0 0.027932960894
          0 0 0 0 0 0
          0.027932960894 0 0 0.055084745763 0.071428571429 0.040345821326
          0.014164305949 0.012987012987 0.040345821326 0.071428571429 0.055084745763 0
          0 0.067669172932 0.11239193084 0.1074168798 0.037688442211 0.034562211982
          0.1074168798 0.11239193084 0.067669172932 0 0 0.074349442379
          0.16147308782 0.16834170854 0.12376237624 0.11286681716 0.16834170854 0.16147308782
          0.074349442379 0 0 0.084459459459 0.2 0.25806451613
          0.33860045147 0.39211618257 0.25806451613 0.2 0.084459459459 0
          0 0.093984962406 0.25360230548 0.36061381074 0.41959798995 0.46774193548
          0.36061381074 0.25360230548 0.093984962406 0 0 0.10593220339
          0.31493506494 0.40057636888 0.4447592068 0.49090909091 0.40057636888 0.31493506494
          0.10593220339 0 0 0.16759776536 0.3686440678 0.43984962406
          0.44609665428 0.49662162162 0.43984962406 0.3686440678 0.16759776536 0
          0 0.1677852349 0.36734693878 0.43891402715 0.44642857143 0.49593495935
          0.43891402715 0.36734693878 0.1677852349 0 0 0
          0 0 0 0 0 0
          0 0 0 0.027906976744 0 0
          0 0 0 0 0.027906976744 0
          0 0.056338028169 0.072776280323 0.040669856459 0.014117647059 0.012931034483
          0.040669856459 0.072776280323 0.056338028169 0 0 0.06875
          0.11483253589 0.10828025478 0.0375782881 0.034416826004 0.10828025478 0.11483253589
          0.06875 0 0 0.074303405573 0.16235294118 0.16910229645
          0.12371134021 0.11257035647 0.16910229645 0.16235294118 0.074303405573 0
          0 0.084269662921 0.20043103448 0.25812619503 0.33771106942 0.39242685026
          0.25812619503 0.20043103448 0.084269662921 0 0 0.09375
          0.25358851675 0.36093418259 0.41962421712 0.46845124283 0.36093418259 0.25358851675
          0.09375 0 0 0.10563380282 0.3153638814 0.4019138756
          0.44470588235 0.49137931034 0.4019138756 0.3153638814 0.10563380282 0
          0 0.16744186047 0.36971830986 0.440625 0.44582043344 0.49719101124
          0.440625 0.36971830986 0.16744186047 0 0 0.16759776536
          0.3686440678 0.43984962406 0.44609665428 0.49662162162 0.43984962406 0.3686440678
          0.16759776536 0 0 0 0 0
          0 0 0 0 0 0
          0 0.024647887324 0 0 0 0
          0 0 0.024647887324 0 0 0.051212938005
          0.06875 0.038817005545 0.012635379061 0.011666666667 0.038817005545 0.06875
          0.051212938005 0 0 0.064593301435 0.10905730129 0.10491803279
          0.036858974359 0.034023668639 0.10491803279 0.10905730129 0.064593301435 0
          0 0.070588235294 0.15523465704 0.16506410256 0.12283464567 0.11271676301
          0.16506410256 0.15523465704 0.070588235294 0 0 0.081896551724
          0.19333333333 0.25443786982 0.33959537572 0.38985313752 0.25443786982 0.19333333333
          0.081896551724 0 0 0.093301435407 0.24768946396 0.35573770492
          0.41987179487 0.46449704142 0.35573770492 0.24768946396 0.093301435407 0
          0 0.10781671159 0.30833333333 0.39556377079 0.4440433213 0.48666666667
          0.39556377079 0.30833333333 0.10781671159 0 0 0.16197183099
          0.35579514825 0.43062200957 0.44470588235 0.49137931034 0.43062200957 0.35579514825
          0.16197183099 0 0 0.16101694915 0.3538961039 0.42939481268
          0.4447592068 0.49090909091 0.42939481268 0.3538961039 0.16101694915 0
          0 0 0 0 0 0
          0 0 0 0 0 0.025
          0 0 0 0 0 0
          0.025 0 0 0.05023923445 0.068391866913 0.039344262295
          0.012820512821 0.011834319527 0.039344262295 0.068391866913 0.05023923445 0
          0 0.063694267516 0.10819672131 0.10465116279 0.036984352774 0.034120734908
          0.10465116279 0.10819672131 0.063694267516 0 0 0.070981210856
          0.15544871795 0.16500711238 0.12290502793 0.11282051282 0.16500711238 0.15544871795
          0.070981210856 0 0 0.082217973231 0.19378698225 0.25459317585
          0.33974358974 0.38981042654 0.25459317585 0.19378698225 0.082217973231 0
          0 0.093418259023 0.24918032787 0.35610465116 0.41963015647 0.46456692913
          0.35610465116 0.24918032787 0.093418259023 0 0 0.10765550239
          0.30868761553 0.39508196721 0.44391025641 0.48668639053 0.39508196721 0.30868761553
          0.10765550239 0 0 0.1625 0.35645933014 0.43099787686
          0.44467640919 0.4913957935 0.43099787686 0.35645933014 0.1625 0
          0 0.16165413534 0.35446685879 0.42966751918 0.44472361809 0.49078341014
          0.42966751918 0.35446685879 0.16165413534 0 0 0
          0 0 0 0 0 0
          0 0 0 0.02786377709 0 0
          0 0 0 0 0.02786377709 0
          0 0.054117647059 0.070397111913 0.040064102564 0.014173228346 0.013005780347
          0.040064102564 0.070397111913 0.054117647059 0 0 0.066805845511
          0.11057692308 0.106685633 0.037709497207 0.034615384615 0.106685633 0.11057692308
          0.066805845511 0 0 0.074226804124 0.16062992126 0.16759776536
          0.12362637363 0.11292346299 0.16759776536 0.16062992126 0.074226804124 0
          0 0.084427767355 0.19942196532 0.25769230769 0.33877038896 0.39145496536
          0.25769230769 0.19942196532 0.084427767355 0 0 0.093945720251
          0.25320512821 0.35988620199 0.41899441341 0.46666666667 0.35988620199 0.25320512821
          0.093945720251 0 0 0.10588235294 0.31407942238 0.39903846154
          0.44409448819 0.48988439306 0.39903846154 0.31407942238 0.10588235294 0
          0 0.16718266254 0.36705882353 0.43841336117 0.44536082474 0.49530956848
          0.43841336117 0.36705882353 0.16718266254 0 0 0.16728624535
          0.36543909348 0.43718592965 0.44554455446 0.49435665914 0.43718592965 0.36543909348
          0.16728624535 0 0 0 0 0
          0 0 0 0 0 0
          0 0.025280898876 0 0 0 0
          0 0 0.025280898876 0 0 0.049568965517
          0.066666666667 0.038461538462 0.013005780347 0.012016021362 0.038461538462 0.066666666667
          0.049568965517 0 0 0.06309751434 0.1050295858 0.10367454068
          0.037179487179 0.034360189573 0.10367454068 0.1050295858 0.06309751434 0
          0 0.071294559099 0.15462427746 0.1641025641 0.12296110414 0.11316397229
          0.1641025641 0.15462427746 0.071294559099 0 0 0.082616179002
          0.19359145527 0.25473933649 0.34064665127 0.38930481283 0.25473933649 0.19359145527
          0.082616179002 0 0 0.093690248566 0.24852071006 0.35564304462
          0.41923076923 0.46327014218 0.35564304462 0.24852071006 0.093690248566 0
          0 0.10775862069 0.30833333333 0.39349112426 0.4436416185 0.48598130841
          0.39349112426 0.30833333333 0.10775862069 0 0 0.16292134831
          0.35560344828 0.43021032505 0.44465290807 0.49053356282 0.43021032505 0.35560344828
          0.16292134831 0 0 0.16216216216 0.35324675325 0.42857142857
          0.44469525959 0.48962655602 0.42857142857 0.35324675325 0.16216216216 0
          0 0 0 0 0 0
          0 0 0 0 0 0.025
          0 0 0 0 0 0
          0.025 0 0 0.05023923445 0.068391866913 0.039344262295
          0.012820512821 0.011834319527 0.039344262295 0.068391866913 0.05023923445 0
          0 0.063694267516 0.10819672131 0.10465116279 0.036984352774 0.034120734908
          0.10465116279 0.10819672131 0.063694267516 0 0 0.070981210856
          0.15544871795 0.16500711238 0.12290502793 0.11282051282 0.16500711238 0.15544871795
          0.070981210856 0 0 0.082217973231 0.19378698225 0.25459317585
          0.33974358974 0.38981042654 0.25459317585 0.19378698225 0.082217973231 0
          0 0.093418259023 0.24918032787 0.35610465116 0.41963015647 0.46456692913
          0.35610465116 0.24918032787 0.093418259023 0 0 0.10765550239
          0.30868761553 0.39508196721 0.44391025641 0.48668639053 0.39508196721 0.30868761553
          0.10765550239 0 0 0.1625 0.35645933014 0.43099787686
          0.44467640919 0.4913957935 0.43099787686 0.35645933014 0.1625 0
          0 0.16165413534 0.35446685879 0.42966751918 0.44472361809 0.49078341014
          0.42966751918 0.35446685879 0.16165413534 0 0 0
          0 0 0 0 0 0
          0 0 0 0.024647887324 0 0
          0 0 0 0 0.024647887324 0
          0 0.051212938005 0.06875 0.038817005545 0.012635379061 0.011666666667
          0.038817005545 0.06875 0.051212938005 0 0 0.064593301435
          0.10905730129 0.10491803279 0.036858974359 0.034023668639 0.10491803279 0.10905730129
          0.064593301435 0 0 0.070588235294 0.15523465704 0.16506410256
          0.12283464567 0.11271676301 0.16506410256 0.15523465704 0.070588235294 0
          0 0.081896551724 0.19333333333 0.25443786982 0.33959537572 0.38985313752
          0.25443786982 0.19333333333 0.081896551724 0 0 0.093301435407
          0.24768946396 0.35573770492 0.41987179487 0.46449704142 0.35573770492 0.24768946396
          0.093301435407 0 0 0.10781671159 0.30833333333 0.39556377079
          0.4440433213 0.48666666667 0.39556377079 0.30833333333 0.10781671159 0
          0 0.16197183099 0.35579514825 0.43062200957 0.44470588235 0.49137931034
          0.43062200957 0.35579514825 0.16197183099 0 0 0.16101694915
          0.3538961039 0.42939481268 0.4447592068 0.49090909091 0.42939481268 0.3538961039
          0.16101694915 0 0 0 0 0
          0 0 0 0 0 0
          0 0.027906976744 0 0 0 0
          0 0 0.027906976744 0 0 0.056338028169
          0.072776280323 0.040669856459 0.014117647059 0.012931034483 0.040669856459 0.072776280323
          0.056338028169 0 0 0.06875 0.11483253589 0.10828025478
          0.0375782881 0.034416826004 0.10828025478 0.11483253589 0.06875 0
          0 0.074303405573 0.16235294118 0.16910229645 0.12371134021 0.11257035647
          0.16910229645 0.16235294118 0.074303405573 0 0 0.084269662921
          0.20043103448 0.25812619503 0.33771106942 0.39242685026 0.25812619503 0.20043103448
          0.084269662921 0 0 0.09375 0.25358851675 0.36093418259
          0.41962421712 0.46845124283 0.36093418259 0.25358851675 0.09375 0
          0 0.10563380282 0.3153638814 0.4019138756 0.44470588235 0.49137931034
          0.4019138756 0.3153638814 0.10563380282 0 0 0.16744186047
          0.36971830986 0.440625 0.44582043344 0.49719101124 0.440625 0.36971830986
          0.16744186047 0 0 0.16759776536 0.3686440678 0.43984962406
          0.44609665428 0.49662162162 0.43984962406 0.3686440678 0.16759776536 0
          0 0 0 0 0 0
          0 0 0 0 0 0.027932960894
          0 0 0 0 0 0
          0.027932960894 0 0 0.055084745763 0.071428571429 0.040345821326
          0.014164305949 0.012987012987 0.040345821326 0.071428571429 0.055084745763 0
          0 0.067669172932 0.11239193084 0.1074168798 0.037688442211 0.034562211982
          0.1074168798 0.11239193084 0.067669172932 0 0 0.074349442379
          0.16147308782 0.16834170854 0.12376237624 0.11286681716 0.16834170854 0.16147308782
          0.074349442379 0 0 0.084459459459 0.2 0.25806451613
          0.33860045147 0.39211618257 0.25806451613 0.2 0.084459459459 0
          0 0.093984962406 0.25360230548 0.36061381074 0.41959798995 0.46774193548
          0.36061381074 0.25360230548 0.093984962406 0 0 0.10593220339
          0.31493506494 0.40057636888 0.4447592068 0.49090909091 0.40057636888 0.31493506494
          0.10593220339 0 0 0.16759776536 0.3686440678 0.43984962406
          0.44609665428 0.49662162162 0.43984962406 0.3686440678 0.16759776536 0
          0 0.1677852349 0.36734693878 0.43891402715 0.44642857143 0.49593495935
          0.43891402715 0.36734693878 0.1677852349 0
        </DataArray>
        <DataArray type="Float64" Name="Displacement" NumberOfComponents="3" format="ascii" RangeMin="1.7413652095" RangeMax="1.7573422496">
          -0.0051425621981 1.7508251583 -0.00964281175 -0.0032358062929 1.7475100257 -0.0086369053038
          -0.0032539412931 1.748280432 -0.0078753575045 -0.0031223686103 1.7475282884 -0.0072404581235
          -0.0033493492772 1.7475113251 -0.0072689322157 -0.0032971402417 1.7474254019 -0.0072935090454
          -0.0035352458757 1.7470343201 -0.0072426712863 -0.0034360847118 1.7473569306 -0.0078197691171
          -0.0035444790755 1.7463210469 -0.008624211875 -0.0014093062693 1.749322434 -0.0095827322509
          -0.0031134781374 1.7475099759 -0.0087777466326 -0.0020870121192 1.7492418409 -0.0095291653001
          -0.0030425371132 1.750316894 -0.0096813683722 -0.0028517052495 1.7484044365 -0.0084300241819
          -0.0031815890306 1.7479492055 -0.0080649710371 -0.0032221477872 1.7479486286 -0.0082719140608
          -0.0035242456097 1.747746794 -0.0083557238476 -0.0032460721903 1.7494136683 -0.0096139399626
          -0.0041469962074 1.7480906475 -0.0094963855061 -0.0033205054691 1.7459052709 -0.0087499472262
          -0.0030796016968 1.7497264199 -0.0092262615678 -0.002910445583 1.7489452961 -0.0084779175859
          -0.0028875969898 1.7487382012 -0.0088289629993 -0.0031687247113 1.7484614205 -0.0083213510142
          -0.0030013318575 1.7486200304 -0.0086543437906 -0.0029352819693 1.7485627713 -0.0089064895574
          -0.0028046823673 1.7478469873 -0.0082477902788 -0.0031153248003 1.7477983178 -0.0088294675624
          -0.0030243388261 1.7477102804 -0.008446361209 -0.0029556881361 1.7480851733 -0.0092211607935
          -0.0027775653972 1.7487650577 -0.0085178917414 -0.0033766554333 1.7481312071 -0.0082542979401
          -0.00292092391 1.7489582217 -0.0089166074128 -0.0027132709708 1.748690846 -0.0088204607022
          -0.0028795358134 1.7483785098 -0.008764601969 -0.0027352900448 1.7482842204 -0.0087885221773
          -0.0028019584992 1.7480282827 -0.0087537033813 -0.0026638034154 1.7480627041 -0.0088999353374
          -0.0022543445531 1.7468370285 -0.0082363175749 -0.0028569650566 1.7471628798 -0.0085242355366
          -0.0023973829399 1.7485585229 -0.0091488396869 -0.003726157984 1.7483519794 -0.0081657484283
          -0.0028338847079 1.7488215684 -0.0091254562743 -0.0024872124196 1.7491603628 -0.0092659892057
          -0.0028868913924 1.7482474717 -0.0094896340256 -0.0026767930382 1.7485450647 -0.0093152858308
          -0.0026874545743 1.7485949946 -0.0093032226 -0.0023902986378 1.747920123 -0.0091136237131
          -0.0015433556394 1.7470886557 -0.0081474990244 -0.0028657728354 1.7469723563 -0.0091376359229
          -0.002320345657 1.7492599404 -0.0097715994408 -0.0043318127352 1.7484879063 -0.0083634811682
          -0.0030476390253 1.7482973986 -0.0095403712656 -0.0027424384448 1.7484493233 -0.0096299766861
          -0.0055667380897 1.7475360008 -0.011993909883 0.00077549032685 1.7473904506 -0.012077886569
          -0.0021472067656 1.7479792314 -0.0096872253281 -0.0018295311017 1.7474298651 -0.0095216470408
          -0.0005760548989 1.7472222023 -0.0083336664305 -0.0025587683834 1.7476356304 -0.0097473019082
          -0.0024176116989 1.7487935676 -0.010014272924 -0.0045324283561 1.7481565419 -0.0086966330127
          -0.0024813537156 1.7493642241 -0.0089816110498 -0.0020481407847 1.7489014407 -0.0094627313602
          -0.0015214720363 1.7479946141 -0.0092673679909 -0.0030118831728 1.7478008691 -0.0092786767111
          -0.0025096016014 1.7483605743 -0.0094601616875 -0.002039695793 1.7484707088 -0.0089641958617
          8.7719834505e-06 1.7468528944 -0.0086894640364 -0.0020585547433 1.7471774874 -0.0099609187269
          -0.0016048135824 1.7494590479 -0.01032187228 -0.0059031516847 1.7479240312 -0.0084688252726
          -0.0037572888283 1.7482407917 -0.010087836142 -0.0056099687705 1.7485070325 -0.010876811744
          -0.00013631608449 1.7491363845 -0.0070414142143 -0.0040059679113 1.749002154 -0.0070477198604
          0.0014532178355 1.7479595294 -0.010867538327 -0.00037927920215 1.747344493 -0.010058043595
          0.0018753539171 1.7466777447 -0.0083443620792 -0.0025590287993 1.7478155463 -0.010330277026
          -0.0038119620574 1.7494117207 -0.0094166103691 -8.3131632152e-05 1.7477996527 -0.013827284787
          -0.0057034680044 1.7491901502 -0.0098908094021 -0.0051085907523 1.7501668849 -0.010675058538
          -0.0033772232879 1.7479224807 -0.012390875102 -0.00054113733886 1.7476278742 -0.012364366828
          0.001344163258 1.7495441478 -0.010706690879 0.0018954062428 1.7482135687 -0.0099136275611
          -0.003871220446 1.7465850081 -0.01387147734 5.0264884964e-05 1.7478111534 -0.0093552616143
          -0.0030228419425 1.7433207315 -0.015267458174 -0.0029107886922 1.7549422787 -0.003331769731
          -0.00023271776631 1.7507993411 -0.0085066036492 -0.0010874367241 1.7516342814 -0.0067771213746
          -0.0011131108683 1.7451536411 -0.011931286423 -0.0024662466688 1.7450084723 -0.011814612371
          -0.002390213525 1.7511566331 -0.0067090276938 -0.0031738134999 1.74985845 -0.008538372442
          -0.00045077820301 1.753821217 -0.0031183662543 -0.00059549234529 1.7412938776 -0.015750245493
          -0.0029597556452 1.7479625946 -0.0076870377534 -0.0032037114909 1.749480188 -0.0085001222984
          -0.0031981660734 1.7500582055 -0.0099101239034 -0.0027681499863 1.7484825743 -0.008086128536
          -0.0032414068953 1.7482640938 -0.0077814031965 -0.0034017749732 1.7482950926 -0.0079715531102
          -0.0039638842202 1.7478575884 -0.0079985897268 -0.0034695031294 1.7491801489 -0.0098498522465
          -0.0034563721649 1.7482649581 -0.008516041845 -0.003781109868 1.7464123718 -0.0076662813111
          -0.0027663344375 1.7487204441 -0.0084196428592 -0.0030494162085 1.7489910856 -0.0082519562269
          -0.0031463183622 1.7491081092 -0.0085656013906 -0.0031018637053 1.7488089551 -0.0084548688107
          -0.0030906018773 1.7484482761 -0.0083626021614 -0.0032396010419 1.7483481637 -0.0084693179357
          -0.0032323443767 1.7481971971 -0.008383832643 -0.0031770709397 1.7482223462 -0.0085648460998
          -0.003296161133 1.7477215001 -0.0082322088462 -0.0035194227463 1.7471443716 -0.0083450521644
          -0.0028036912332 1.7487755945 -0.00896890768 -0.003270889919 1.7489426895 -0.0084087586488
          -0.0028083107826 1.7491563486 -0.0088313614349 -0.0028787333344 1.7487388399 -0.0085746569255
          -0.0029321200452 1.7486706957 -0.0085771434104 -0.0030315791696 1.7485139188 -0.0086076264263
          -0.0030857372102 1.7482212079 -0.0085902099552 -0.0031672860599 1.7482505148 -0.0088130478985
          -0.0026954654536 1.7476862753 -0.008384315383 -0.0031706598277 1.7471859678 -0.0089374458569
          -0.0034585970874 1.7485256226 -0.0083116808729 -0.0029765150562 1.748757247 -0.0085310793571
          -0.002798871501 1.7489467841 -0.0089266668243 -0.0027325596895 1.7488616889 -0.0089364021946
          -0.0027678478972 1.7489212424 -0.0090140539095 -0.0028595606064 1.7487640517 -0.0090477190977
          -0.0028748938318 1.7483427008 -0.0089305227196 -0.002799825696 1.7480609882 -0.0089048050826
          -0.0026357437045 1.7474837714 -0.0084865130872 -0.0022116502695 1.7468989643 -0.0082525056726
          -0.0035860530848 1.7483485101 -0.0085244658229 -0.0034307442139 1.74878362 -0.0090767215271
          -0.0025909670949 1.749006598 -0.0092163668395 -0.0025967399674 1.7488798135 -0.0094469956645
          -0.0026415677391 1.7489115785 -0.0094141223588 -0.0026295437787 1.7488461254 -0.00938655512
          -0.0026377016024 1.7483512569 -0.00940653886 -0.0026472735489 1.7481161085 -0.0091868699439
          -0.0018152978693 1.7475259118 -0.0090403425709 -0.0017132078749 1.7466995777 -0.0084841451275
          -0.0032177872668 1.7484342095 -0.008618199425 -0.0030221243662 1.7489798713 -0.0088134538902
          -0.0023794335884 1.7490762236 -0.0092174902312 -0.0027918301172 1.748910421 -0.0092717741351
          -0.0029441728517 1.7488874137 -0.009440867955 -0.0019566007085 1.7487323254 -0.009445022385
          -0.0021018545933 1.7483807656 -0.0092313148258 -0.0025169849299 1.7481933514 -0.0091813051686
          -0.0018700414267 1.747724055 -0.0087701558651 -0.0017024846083 1.7467972897 -0.0085921148825
          -0.0037357301865 1.748831334 -0.0082906223243 -0.0034636025758 1.7486853355 -0.0091209259024
          -0.0024428305471 1.7487740771 -0.009848733246 -0.0017579764947 1.7490265005 -0.0094292275974
          -0.0024394814519 1.7488041035 -0.009542231683 -0.0020981834754 1.7486051017 -0.009540324711
          -0.0027571061315 1.7485021907 -0.0094216612717 -0.0020620348872 1.7478645663 -0.0098291016763
          -0.0010828874943 1.7474240108 -0.0091070647235 -0.00079645238289 1.7471836032 -0.0082505112287
          -0.0032120804323 1.7492618531 -0.0087688869776 -0.0032589780783 1.7485170563 -0.0094856000604
          -0.002372238896 1.7488697755 -0.0094976602507 -0.0025516989725 1.7490597835 -0.0093407043715
          -0.0025880430954 1.7493802072 -0.0096219200679 -0.0015634694571 1.7491902271 -0.0096587568097
          -0.0016365725106 1.7485207591 -0.0093405019022 -0.0017838433428 1.7479731522 -0.0094997407756
          -0.00089673595856 1.7472545594 -0.0094813822642 -0.00096269046606 1.7476296306 -0.0087491111245
          -0.0019120204799 1.7513613589 -0.008322706365 -0.003273836746 1.7471866508 -0.011225659455
          -0.0030771390164 1.7483803845 -0.010285471387 -0.0030029477003 1.748675182 -0.010341995211
          -0.0036540709402 1.750101983 -0.0095267640437 -0.00014686255688 1.7499536862 -0.0095210102321
          -0.00077003597281 1.74816287 -0.010352861786 -0.00072341070231 1.7474893708 -0.01028775571
          -0.00053626911924 1.7459379536 -0.011220151427 -0.0019171193512 1.7497761392 -0.0083335942046
          -0.0008318616845 1.7500212521 -0.011138753835 -0.0058067022013 1.7463489058 -0.011597952726
          -0.0062106433938 1.7481104615 -0.010734199366 -0.00504087898 1.7500922084 -0.0099091980557
          0.0027678031249 1.7446220895 -0.0083192405076 -0.0062108623971 1.7444135045 -0.0083696176088
          0.0016088905723 1.7495962236 -0.0098390567717 0.0027684800953 1.74723082 -0.010619771433
          0.002406865653 1.7450497636 -0.011531833966 -0.0023293766626 1.7481386361 -0.011055721871
          -0.0024229122023 1.7492293722 -0.008466716934 -0.0037080045615 1.7495679125 -0.0079402930589
          -0.003619400917 1.7497097249 -0.0083545876068 -0.0034390516519 1.7488540613 -0.0079593354171
          -0.0032840060224 1.7481948264 -0.0073361264436 -0.0033703890114 1.7478605201 -0.0073286793122
          -0.0032839585023 1.7482607861 -0.0079532373643 -0.0030435617678 1.7488307339 -0.0083653872684
          -0.0029764287807 1.7483232122 -0.0079251865142 -0.004326872011 1.747551059 -0.0084158196819
          -0.0035694970405 1.7500164355 -0.0082748887124 -0.0033476602398 1.7493841007 -0.0083043014743
          -0.0032335108466 1.7497287751 -0.0087456935572 -0.0030757614849 1.7489674271 -0.0084191203459
          -0.0031042786967 1.7489444535 -0.0085059357012 -0.0031707533231 1.748754254 -0.0085246624415
          -0.00326939311 1.7484378349 -0.0084358837948 -0.0030993073728 1.7488348719 -0.0087349992245
          -0.0029732574783 1.7481490567 -0.0083048953304 -0.0027501522401 1.7484538599 -0.0082552403707
          -0.0030652607257 1.7493609105 -0.0082274334276 -0.0028073377397 1.7492009084 -0.0086945255056
          -0.0028240919967 1.7492108334 -0.0087664726313 -0.0028480188192 1.7491363661 -0.0087411225069
          -0.0029181488269 1.7490852487 -0.008652836778 -0.0030476196004 1.7489144425 -0.0087043239996
          -0.0031043645122 1.7486104202 -0.008746052792 -0.0031630960899 1.7483359802 -0.0087471386158
          -0.003159781515 1.7479505089 -0.008672121521 -0.0028895542449 1.7477496276 -0.0081884142933
          -0.0028931687222 1.7489554687 -0.0083460355081 -0.0026417510112 1.7491090155 -0.0088301100984
          -0.0026716004571 1.7492300655 -0.0089999713893 -0.002704737009 1.7491813582 -0.0089792472595
          -0.0027341793235 1.7490751794 -0.0090624255516 -0.0028726516256 1.7488777041 -0.0090647459893
          -0.0028813657102 1.7486509551 -0.0089784105083 -0.0029507154627 1.7483403925 -0.0089619380378
          -0.0029546260649 1.7478703242 -0.0087950045969 -0.0027469346076 1.7473359106 -0.0083386445471
          -0.0030173164096 1.7490934239 -0.0086500560782 -0.0026432015745 1.7490034458 -0.009248967002
          -0.0025478233614 1.7492243393 -0.0092401243197 -0.0026025143018 1.7491660649 -0.0092624560336
          -0.0025799572069 1.7491429524 -0.0092058589153 -0.0026838753113 1.7489157712 -0.00918568315
          -0.0026499025361 1.7486432706 -0.0092311995778 -0.002718966988 1.7483226216 -0.0092112540865
          -0.0026157625668 1.7477553676 -0.0092193714961 -0.0022774701883 1.7474699093 -0.0086593787759
          -0.0028457222511 1.7494547083 -0.0090422275537 -0.002770527789 1.7490518647 -0.0093028701233
          -0.0025268970478 1.749169354 -0.0094243803711 -0.0026006016584 1.7490316292 -0.009370275669
          -0.0026472334011 1.7491337323 -0.0092744362428 -0.0022651431282 1.7489622365 -0.0092231927407
          -0.0023203693117 1.7484883209 -0.0093501360424 -0.0023955385099 1.7482659329 -0.0093995357613
          -0.0021270510886 1.747806767 -0.0092773217811 -0.0020866063094 1.747857532 -0.0090459719251
          -0.0031797010222 1.7491229628 -0.0087280477868 -0.0023234349822 1.7491216228 -0.0097185280278
          -0.0026357323829 1.7491034877 -0.0097553517731 -0.0022523717882 1.7491518836 -0.0095498503077
          -0.0029540831407 1.7492964554 -0.0097321538319 -0.0015764640643 1.7491216498 -0.0097434869023
          -0.0023047594522 1.7486260508 -0.0095387501415 -0.0019093499563 1.7482055358 -0.0097455447967
          -0.0021685156982 1.7478680093 -0.009675457349 -0.0013810800852 1.7475172915 -0.0087132690502
          -0.0028908048417 1.7488520454 -0.0099025954053 -0.0020129782039 1.7490561997 -0.010366753984
          -0.0026351243935 1.7491346364 -0.0096685754767 -0.0031313874814 1.7490862419 -0.010038158349
          -0.0024774120288 1.7495440649 -0.0092013296708 -0.0016597095617 1.749362958 -0.009235384873
          -0.001055831338 1.7485643017 -0.010021342108 -0.0015280932775 1.7482541118 -0.0096409871944
          -0.0021361471451 1.7477828247 -0.010359798316 -0.0012925780966 1.7472222996 -0.0098973188432
          -0.0040905878889 1.7474684444 -0.0089792681058 -0.0034692947405 1.7478460212 -0.010535263773
          -0.0016173390661 1.7490280826 -0.010237229583 -0.0026473426467 1.7490135688 -0.010117107065
          -0.0030729017381 1.7501865423 -0.0091862487843 -0.00067859708742 1.7500342324 -0.0092290676149
          -0.0011314498108 1.7484951462 -0.010109253458 -0.0021536770611 1.7481158376 -0.010221385953
          -0.00032483632853 1.7466107282 -0.010484293327 0.00029899343891 1.7458468068 -0.0089782940788
          -0.0015477000834 1.750651932 -0.0088298895238 -0.00059624694561 1.750169661 -0.0093359104507
          -0.003628038382 1.7501004214 -0.0081733699522 -0.0025685050244 1.7491469416 -0.009455047968
          -0.0017218681938 1.7488019569 -0.010069904182 -0.0017544756702 1.7486353601 -0.010053748199
          -0.0008509323608 1.748629523 -0.0094614173755 0.00022795218554 1.7491934958 -0.0081317836338
          -0.002797191317 1.7489000065 -0.0093237535027 -0.0020697700011 1.7492637196 -0.0088357216662
          -0.002329195968 1.7492374321 -0.0080018563097 -0.0029640984638 1.7496013618 -0.0080731813543
          -0.0034463623191 1.749628515 -0.0082471792173 -0.0030423438822 1.7490913068 -0.0079225957232
          -0.0032514598328 1.7492220208 -0.0081303100508 -0.0033904045732 1.7490343848 -0.0081360753362
          -0.0036402205755 1.7485137756 -0.0079211558528 -0.0032446872504 1.7487217049 -0.0082688608783
          -0.0037353116516 1.7483203421 -0.0080738847388 -0.0043798517279 1.7476236377 -0.0079897515694
          -0.0024725518492 1.7489552335 -0.0085102352708 -0.0028275912726 1.7496146359 -0.0084873846238
          -0.0028922753147 1.7493832592 -0.0084566321188 -0.0030460741376 1.7491479481 -0.0084026849382
          -0.00312046242 1.7491603549 -0.008445300113 -0.0031754610113 1.7489378049 -0.0084504567056
          -0.0032744469578 1.7485798624 -0.0084074568573 -0.0034468646657 1.7484940939 -0.0084619132543
          -0.003480577406 1.7483812099 -0.0084796657794 -0.003929703265 1.7473330888 -0.008488543215
          -0.0021425408066 1.748701728 -0.0086389957528 -0.002444840414 1.7492037409 -0.0086246100998
          -0.0027780244171 1.7493497712 -0.008613547714 -0.0028248704743 1.7493441731 -0.0086632591378
          -0.002934427504 1.7493292267 -0.0086370139975 -0.0029978352882 1.7491502613 -0.0086419242949
          -0.0031172358047 1.7488005515 -0.0086838382294 -0.003204249116 1.7484649039 -0.0086037466047
          -0.0035268101358 1.7479713108 -0.0086178044422 -0.003845765803 1.747088113 -0.0086060234849
          -0.0024008762853 1.7490607899 -0.0089276244326 -0.0026435630975 1.749386508 -0.0088473520287
          -0.002668185906 1.749458899 -0.0088977341185 -0.0026815416398 1.7494050067 -0.0088802476788
          -0.002774108269 1.7492720651 -0.0088646270221 -0.0028301286464 1.749105988 -0.0088528707849
          -0.0028915665883 1.7488608601 -0.0089397583422 -0.002961545612 1.7485613888 -0.0088974313132
          -0.0029720927127 1.7481374512 -0.0088353913047 -0.0031922426614 1.7474610077 -0.0088766555734
          -0.002716774169 1.7488823423 -0.0088716119077 -0.0025816314086 1.7494195013 -0.0091266768086
          -0.0026922772373 1.7493993353 -0.0091389904809 -0.0026248940879 1.7493438935 -0.0092127550298