<?xml version="1.0"?>
<VTKFile type="UnstructuredGrid" version="0.1" byte_order="LittleEndian" compressor="vtkZLibDataCompressor">
  <UnstructuredGrid>
    <FieldData>
      <DataArray type="Float64" Name="TIME" NumberOfTuples="1" format="ascii" RangeMin="0.28387204939" RangeMax="0.28387204939">
        0.28387204939
      </DataArray>
    </FieldData>
    <Piece NumberOfPoints="1000" NumberOfCells="0">
      <PointData>
        <DataArray type="Float64" Name="Damage" format="ascii" RangeMin="0" RangeMax="0.49719101124">
          0 0 0 0 0 0
          0 0 0 0 0 0.027932960894
          0 0 0 0 0 0
          0.027932960894 0 0 0.055084745763 0.071428571429 0.040345821326
          0.014164305949 0.012987012987 0.040345821326 0.071428571429 0.055084745763 0
          0 0.067669172932 0.11239193084 0.1074168798 0.037688442211 0.034562211982
          0.1074168798 0.11239193084 0.067669172932 0 0 0.074349442379
          0.16147308782 0.16834170854 0.12376237624 0.11286681716 0.16834170854 0.16147308782
          0.074349442379 0 0 0.084459459459 0.2 0.25806451613
          0.33860045147 0.39211618257 0.25806451613 0.2 0.084459459459 0
          0 0.093984962406 0.25360230548 0.36061381074 0.41959798995 0.46774193548
          0.36061381074 0.25360230548 0.093984962406 0 0 0.10593220339
          0.31493506494 0.40057636888 0.4447592068 0.49090909091 0.40057636888 0.31493506494
          0.10593220339 0 0 0.16759776536 0.3686440678 0.43984962406
          0.44609665428 0.49662162162 0.43984962406 0.3686440678 0.16759776536 0
          0 0.1677852349 0.36734693878 0.43891402715 0.44642857143 0.49593495935
          0.43891402715 0.36734693878 0.1677852349 0 0 0
          0 0 0 0 0 0
          0 0 0 0.027906976744 0 0
          0 0 0 0 0.027906976744 0
          0 0.056338028169 0.072776280323 0.040669856459 0.014117647059 0.012931034483
          0.040669856459 0.072776280323 0.056338028169 0 0 0.06875
          0.11483253589 0.10828025478 0.0375782881 0.034416826004 0.10828025478 0.11483253589
          0.06875 0 0 0.074303405573 0.16235294118 0.16910229645
          0.12371134021 0.11257035647 0.16910229645 0.16235294118 0.074303405573 0
          0 0.084269662921 0.20043103448 0.25812619503 0.33771106942 0.39242685026
          0.25812619503 0.20043103448 0.084269662921 0 0 0.09375
          0.25358851675 0.36093418259 0.41962421712 0.46845124283 0.36093418259 0.25358851675
          0.09375 0 0 0.10563380282 0.3153638814 0.4019138756
          0.44470588235 0.49137931034 0.4019138756 0.3153638814 0.10563380282 0
          0 0.16744186047 0.36971830986 0.440625 0.44582043344 0.49719101124
          0.440625 0.36971830986 0.16744186047 0 0 0.16759776536
          0.3686440678 0.43984962406 0.44609665428 0.49662162162 0.43984962406 0.3686440678
          0.16759776536 0 0 0 0 0
          0 0 0 0 0 0
          0 0.024647887324 0 0 0 0
          0 0 0.024647887324 0 0 0.051212938005
          0.06875 0.038817005545 0.012635379061 0.011666666667 0.038817005545 0.06875
          0.051212938005 0 0 0.064593301435 0.10905730129 0.10491803279
          0.036858974359 0.034023668639 0.10491803279 0.10905730129 0.064593301435 0
          0 0.070588235294 0.15523465704 0.16506410256 0.12283464567 0.11271676301
          0.16506410256 0.15523465704 0.070588235294 0 0 0.081896551724
          0.19333333333 0.25443786982 0.33959537572 0.38985313752 0.25443786982 0.19333333333
          0.081896551724 0 0 0.093301435407 0.24768946396 0.35573770492
          0.41987179487 0.46449704142 0.35573770492 0.24768946396 0.093301435407 0
          0 0.10781671159 0.30833333333 0.39556377079 0.4440433213 0.48666666667
          0.39556377079 0.30833333333 0.10781671159 0 0 0.16197183099
          0.35579514825 0.43062200957 0.44470588235 0.49137931034 0.43062200957 0.35579514825
          0.16197183099 0 0 0.16101694915 0.3538961039 0.42939481268
          0.4447592068 0.49090909091 0.42939481268 0.3538961039 0.16101694915 0
          0 0 0 0 0 0
          0 0 0 0 0 0.025
          0 0 0 0 0 0
          0.025 0 0 0.05023923445 0.068391866913 0.039344262295
          0.012820512821 0.011834319527 0.039344262295 0.068391866913 0.05023923445 0
          0 0.063694267516 0.10819672131 0.10465116279 0.036984352774 0.034120734908
          0.10465116279 0.10819672131 0.063694267516 0 0 0.070981210856
          0.15544871795 0.16500711238 0.12290502793 0.11282051282 0.16500711238 0.15544871795
          0.070981210856 0 0 0.082217973231 0.19378698225 0.25459317585
          0.33974358974 0.38981042654 0.25459317585 0.19378698225 0.082217973231 0
          0 0.093418259023 0.24918032787 0.35610465116 0.41963015647 0.46456692913
          0.35610465116 0.24918032787 0.093418259023 0 0 0.10765550239
          0.30868761553 0.39508196721 0.44391025641 0.48668639053 0.39508196721 0.30868761553
          0.10765550239 0 0 0.1625 0.35645933014 0.43099787686
          0.44467640919 0.4913957935 0.43099787686 0.35645933014 0.1625 0
          0 0.16165413534 0.35446685879 0.42966751918 0.44472361809 0.49078341014
          0.42966751918 0.35446685879 0.16165413534 0 0 0
          0 0 0 0 0 0
          0 0 0 0.02786377709 0 0
          0 0 0 0 0.02786377709 0
          0 0.054117647059 0.070397111913 0.040064102564 0.014173228346 0.013005780347
          0.040064102564 0.070397111913 0.054117647059 0 0 0.066805845511
          0.11057692308 0.106685633 0.037709497207 0.034615384615 0.106685633 0.11057692308
          0.066805845511 0 0 0.074226804124 0.16062992126 0.16759776536
          0.12362637363 0.11292346299 0.16759776536 0.16062992126 0.074226804124 0
          0 0.084427767355 0.19942196532 0.25769230769 0.33877038896 0.39145496536
          0.25769230769 0.19942196532 0.084427767355 0 0 0.093945720251
          0.25320512821 0.35988620199 0.41899441341 0.46666666667 0.35988620199 0.25320512821
          0.093945720251 0 0 0.10588235294 0.31407942238 0.39903846154
          0.44409448819 0.48988439306 0.39903846154 0.31407942238 0.10588235294 0
          0 0.16718266254 0.36705882353 0.43841336117 0.44536082474 0.49530956848
          0.43841336117 0.36705882353 0.16718266254 0 0 0.16728624535
          0.36543909348 0.43718592965 0.44554455446 0.49435665914 0.43718592965 0.36543909348
          0.16728624535 0 0 0 0 0
          0 0 0 0 0 0
          0 0.025280898876 0 0 0 0
          0 0 0.025280898876 0 0 0.049568965517
          0.066666666667 0.038461538462 0.013005780347 0.012016021362 0.038461538462 0.066666666667
          0.049568965517 0 0 0.06309751434 0.1050295858 0.10367454068
          0.037179487179 0.034360189573 0.10367454068 0.1050295858 0.06309751434 0
          0 0.071294559099 0.15462427746 0.1641025641 0.12296110414 0.11316397229
          0.1641025641 0.15462427746 0.071294559099 0 0 0.082616179002
          0.19359145527 0.25473933649 0.34064665127 0.38930481283 0.25473933649 0.19359145527
          0.082616179002 0 0 0.093690248566 0.24852071006 0.35564304462
          0.41923076923 0.46327014218 0.35564304462 0.24852071006 0.093690248566 0
          0 0.10775862069 0.30833333333 0.39349112426 0.4436416185 0.48598130841
          0.39349112426 0.30833333333 0.10775862069 0 0 0.16292134831
          0.35560344828 0.43021032505 0.44465290807 0.49053356282 0.43021032505 0.35560344828
          0.16292134831 0 0 0.16216216216 0.35324675325 0.42857142857
          0.44469525959 0.48962655602 0.42857142857 0.35324675325 0.16216216216 0
          0 0 0 0 0 0
          0 0 0 0 0 0.025
          0 0 0 0 0 0
          0.025 0 0 0.05023923445 0.068391866913 0.039344262295
          0.012820512821 0.011834319527 0.039344262295 0.068391866913 0.05023923445 0
          0 0.063694267516 0.10819672131 0.10465116279 0.036984352774 0.034120734908
          0.10465116279 0.10819672131 0.063694267516 0 0 0.070981210856
          0.15544871795 0.16500711238 0.12290502793 0.11282051282 0.16500711238 0.15544871795
          0.070981210856 0 0 0.082217973231 0.19378698225 0.25459317585
          0.33974358974 0.38981042654 0.25459317585 0.19378698225 0.082217973231 0
          0 0.093418259023 0.24918032787 0.35610465116 0.41963015647 0.46456692913
          0.35610465116 0.24918032787 0.093418259023 0 0 0.10765550239
          0.30868761553 0.39508196721 0.44391025641 0.48668639053 0.39508196721 0.30868761553
          0.10765550239 0 0 0.1625 0.35645933014 0.43099787686
          0.44467640919 0.4913957935 0.43099787686 0.35645933014 0.1625 0
          0 0.16165413534 0.35446685879 0.42966751918 0.44472361809 0.49078341014
          0.42966751918 0.35446685879 0.16165413534 0 0 0
          0 0 0 0 0 0
          0 0 0 0.024647887324 0 0
          0 0 0 0 0.024647887324 0
          0 0.051212938005 0.06875 0.038817005545 0.012635379061 0.011666666667
          0.038817005545 0.06875 0.051212938005 0 0 0.064593301435
          0.10905730129 0.10491803279 0.036858974359 0.034023668639 0.10491803279 0.10905730129
          0.064593301435 0 0 0.070588235294 0.15523465704 0.16506410256
          0.12283464567 0.11271676301 0.16506410256 0.15523465704 0.070588235294 0
          0 0.081896551724 0.19333333333 0.25443786982 0.33959537572 0.38985313752
          0.25443786982 0.19333333333 0.081896551724 0 0 0.093301435407
          0.24768946396 0.35573770492 0.41987179487 0.46449704142 0.35573770492 0.24768946396
          0.093301435407 0 0 0.10781671159 0.30833333333 0.39556377079
          0.4440433213 0.48666666667 0.39556377079 0.30833333333 0.10781671159 0
          0 0.16197183099 0.35579514825 0.43062200957 0.44470588235 0.49137931034
          0.43062200957 0.35579514825 0.16197183099 0 0 0.16101694915
          0.3538961039 0.42939481268 0.4447592068 0.49090909091 0.42939481268 0.3538961039
          0.16101694915 0 0 0 0 0
          0 0 0 0 0 0
          0 0.027906976744 0 0 0 0
          0 0 0.027906976744 0 0 0.056338028169
          0.072776280323 0.040669856459 0.014117647059 0.012931034483 0.040669856459 0.072776280323
          0.056338028169 0 0 0.06875 0.11483253589 0.10828025478
          0.0375782881 0.034416826004 0.10828025478 0.11483253589 0.06875 0
          0 0.074303405573 0.16235294118 0.16910229645 0.12371134021 0.11257035647
          0.16910229645 0.16235294118 0.074303405573 0 0 0.084269662921
          0.20043103448 0.25812619503 0.33771106942 0.39242685026 0.25812619503 0.20043103448
          0.084269662921 0 0 0.09375 0.25358851675 0.36093418259
          0.41962421712 0.46845124283 0.36093418259 0.25358851675 0.09375 0
          0 0.10563380282 0.3153638814 0.4019138756 0.44470588235 0.49137931034
          0.4019138756 0.3153638814 0.10563380282 0 0 0.16744186047
          0.36971830986 0.440625 0.44582043344 0.49719101124 0.440625 0.36971830986
          0.16744186047 0 0 0.16759776536 0.3686440678 0.43984962406
          0.44609665428 0.49662162162 0.43984962406 0.3686440678 0.16759776536 0
          0 0 0 0 0 0
          0 0 0 0 0 0.027932960894
          0 0 0 0 0 0
          0.027932960894 0 0 0.055084745763 0.071428571429 0.040345821326
          0.014164305949 0.012987012987 0.040345821326 0.071428571429 0.055084745763 0
          0 0.067669172932 0.11239193084 0.1074168798 0.037688442211 0.034562211982
          0.1074168798 0.11239193084 0.067669172932 0 0 0.074349442379
          0.16147308782 0.16834170854 0.12376237624 0.11286681716 0.16834170854 0.16147308782
          0.074349442379 0 0 0.084459459459 0.2 0.25806451613
          0.33860045147 0.39211618257 0.25806451613 0.2 0.084459459459 0
          0 0.093984962406 0.25360230548 0.36061381074 0.41959798995 0.46774193548
          0.36061381074 0.25360230548 0.093984962406 0 0 0.10593220339
          0.31493506494 0.40057636888 0.4447592068 0.49090909091 0.40057636888 0.31493506494
          0.10593220339 0 0 0.16759776536 0.3686440678 0.43984962406
          0.44609665428 0.49662162162 0.43984962406 0.3686440678 0.16759776536 0
          0 0.1677852349 0.36734693878 0.43891402715 0.44642857143 0.49593495935
          0.43891402715 0.36734693878 0.1677852349 0
        </DataArray>
        <DataArray type="Float64" Name="Displacement" NumberOfComponents="3" format="ascii" RangeMin="1.2676222627" RangeMax="1.2893193792">
          -0.0084035511863 1.2713283845 -0.020952426238 -0.0093377805288 1.278398007 -0.023937611624
          -0.0088583034778 1.27310477 -0.019250860014 -0.0085646099517 1.2735955499 -0.020812545445
          -0.0086578589232 1.2732405569 -0.020867887009 -0.008750803481 1.2735675407 -0.021624192889
          -0.0089171010944 1.272272126 -0.020768051656 -0.0085097664818 1.2709173777 -0.019242447299
          -0.0079859449172 1.2753729946 -0.023901849431 -0.0092504216974 1.2674166556 -0.020872268875
          -0.0076688143182 1.2767281661 -0.022637161885 -0.0073942435307 1.2750141412 -0.022376513277
          -0.0080921760982 1.2745857761 -0.021886566924 -0.008820775467 1.2756293647 -0.022256056169
          -0.0082946806774 1.2748458413 -0.022380606545 -0.0080425609317 1.2742156843 -0.022358130164
          -0.0077502575685 1.2740486231 -0.02216583257 -0.0084315018275 1.2725120862 -0.021963370358
          -0.0091306191202 1.271998412 -0.022411165201 -0.0088457780823 1.2727053124 -0.022624123993
          -0.008603248295 1.2768965409 -0.022559658143 -0.0064839968941 1.2758739179 -0.023272499129
          -0.0071206159419 1.2754726227 -0.023023778071 -0.0077650560323 1.2746013624 -0.02246181615
          -0.0078172670884 1.2733777892 -0.021835134965 -0.0076291428348 1.273046992 -0.021779559906
          -0.0077504977199 1.2732780231 -0.022311153647 -0.0085217596696 1.2732853156 -0.022938091839
          -0.0091604723537 1.2727871218 -0.023196593685 -0.0070116435657 1.2729509533 -0.022454840391
          -0.0077839376388 1.2762871406 -0.022922604359 -0.0068779146039 1.2763199076 -0.02476715238
          -0.0066062707602 1.275343079 -0.023445704641 -0.0069970607329 1.2746712745 -0.023297189872
          -0.0075120202457 1.2741276712 -0.02317755009 -0.0074830519026 1.2734054097 -0.023276239692
          -0.0079205371866 1.2735938506 -0.023438030797 -0.0081314332387 1.2732468184 -0.023365913192
          -0.007827622421 1.2732985734 -0.024689017937 -0.0070347392901 1.2723674545 -0.022899734468
          -0.0065621197269 1.2774209375 -0.024441319906 -0.0059624837338 1.2755481577 -0.02448980497
          -0.0068707076029 1.2754544612 -0.02385099228 -0.006389649734 1.2753076502 -0.023782881499
          -0.0070009499894 1.2739083741 -0.023973376001 -0.0067295271302 1.2737092822 -0.024153821563
          -0.0073957360549 1.2738439727 -0.023714801732 -0.0069943186534 1.2732728115 -0.023750006655
          -0.0078804472359 1.272583655 -0.024424314122 -0.0073391054117 1.2735691067 -0.024396726412
          -0.0062301033375 1.2758797612 -0.025350811389 -0.0059711982035 1.2764706052 -0.024781039928
          -0.006368776789 1.2752425012 -0.024894711533 -0.0060600011945 1.2747384453 -0.024848440201
          -0.006808963628 1.2743664998 -0.024785963344 -0.0061682898111 1.2735921633 -0.024816134072
          -0.0069668355682 1.2734586688 -0.0248757905 -0.0066560777472 1.2731150754 -0.024778698014
          -0.0069797365405 1.2733737409 -0.02474885061 -0.0067453567872 1.2719903502 -0.025296386475
          -0.0064112199687 1.2768744381 -0.024653718089 -0.0057497143396 1.2765923214 -0.025033744686
          -0.0054148632559 1.2754695473 -0.024903707059 -0.0060154241349 1.2758543571 -0.024588819721
          -0.0039053146111 1.2734209291 -0.025143586993 -0.008212661415 1.273010773 -0.02512950497
          -0.0059960421696 1.2744536903 -0.024504191609 -0.006687680865 1.2733108549 -0.024897244611
          -0.0064138146331 1.2735437144 -0.024975828639 -0.005670246501 1.2729612624 -0.024519173065
          -0.0040611608882 1.2763149363 -0.026636953331 -0.0044517287651 1.276552222 -0.026341399325
          -0.0054190908278 1.2754295802 -0.025595455335 -0.0050974126294 1.2747238711 -0.025589947544
          -0.0065562524687 1.2743832808 -0.026252262525 -0.0046209527971 1.2739211334 -0.026264769204
          -0.006303380583 1.2734661154 -0.025489272371 -0.0059322399322 1.2733011197 -0.025544957837
          -0.0068987323098 1.2735010143 -0.026383329677 -0.0072238739901 1.272345247 -0.026546201694
          -0.0010449193353 1.276658371 -0.02930223651 -0.0046365663182 1.2772348676 -0.025976124885
          -0.0055590850866 1.2733568919 -0.028011271485 -0.0018050842532 1.2739458186 -0.025561601399
          -0.004655377686 1.2743133688 -0.02825390508 -0.0058358320784 1.2737639572 -0.028036243102
          -0.0087811544844 1.2726418347 -0.0254225363 -0.0048827960141 1.2711919816 -0.027939693325
          -0.0058651176847 1.27427769 -0.025900048393 -0.0095892726097 1.2727090044 -0.029481577303
          0.00097610033534 1.2834956106 -0.026186413784 -0.0060934638952 1.2783548655 -0.025471860185
          -0.0056666193887 1.276082536 -0.028206906711 -0.0023878101919 1.272251138 -0.029173193082
          -0.0086639001427 1.2768394916 -0.028282365639 -0.0010339638271 1.2760643331 -0.028547234248
          -0.0072987594997 1.2708351932 -0.029238393158 -0.0037484711144 1.2739818927 -0.028139783334
          -0.003277083353 1.2754295045 -0.025207818354 -0.010405611568 1.2799776183 -0.025707353246
          -0.0081981808616 1.2760930668 -0.021061100998 -0.0084794569682 1.2758708331 -0.020772881801
          -0.0087245996299 1.2754998395 -0.021006788413 -0.0092954534924 1.276095934 -0.021808666779
          -0.0087996837147 1.2755763967 -0.021748596269 -0.0085497032686 1.2748795441 -0.021741876747
          -0.0080521365274 1.2746178026 -0.021623464763 -0.0087449580511 1.2733845993 -0.02110452038
          -0.008959503259 1.272807985 -0.020722538195 -0.0091548449359 1.2721512225 -0.020876656684
          -0.0080613149968 1.2775791839 -0.023224828038 -0.0081296778854 1.2763755496 -0.022870227222
          -0.0080340122863 1.2757337435 -0.022195766858 -0.0082927469953 1.2755615587 -0.022204726557
          -0.0082219871293 1.2756092442 -0.022780089751 -0.0082703676088 1.2749661716 -0.022473247353
          -0.0082542653002 1.2742886475 -0.022236049598 -0.0085203727426 1.2735377815 -0.022183123899
          -0.0084219289871 1.2732741605 -0.022781558363 -0.0085023759144 1.2737180142 -0.023248832815
          -0.0065934439815 1.2774147962 -0.023979406002 -0.0071769302019 1.2763663769 -0.023209555993
          -0.0075183350995 1.2759543321 -0.023221022997 -0.0079362505299 1.2754349971 -0.02249012896
          -0.0078412699559 1.2747937522 -0.022403975734 -0.0077532346955 1.274324899 -0.022285704384
          -0.0077331961278 1.2740919519 -0.022428297632 -0.0080736179306 1.2737082488 -0.023055748531
          -0.0085009272254 1.273276583 -0.023113864919 -0.0090321813753 1.2734702429 -0.023883885303
          -0.0067335774648 1.2775939983 -0.024176592469 -0.0072742733368 1.2765249863 -0.023594894344
          -0.0075013028556 1.2760825981 -0.02322084547 -0.0074195623986 1.2754550643 -0.023152898107
          -0.0073407331017 1.2748241392 -0.02308525596 -0.0073270616209 1.2744071912 -0.023078973893
          -0.0073254935202 1.274104608 -0.023132649576 -0.0073012338635 1.2739105993 -0.02320633598
          -0.0074654184087 1.273469401 -0.023508645778 -0.0079248860171 1.2736085946 -0.024051686745
          -0.0063938392083 1.2786720061 -0.024655790315 -0.0067912293136 1.2765881828 -0.023912571939
          -0.0070471240514 1.2759968545 -0.023618704119 -0.0069219791339 1.2753927706 -0.02404857053
          -0.0069187621091 1.2749300659 -0.024034207366 -0.007019452594 1.2746025945 -0.0238959553
          -0.0069341084952 1.2740286152 -0.024001751867 -0.0068549576886 1.2738195757 -0.023557873231
          -0.0071056207448 1.2735170802 -0.02380480363 -0.0074299778125 1.2746900363 -0.024497526783
          -0.0061447238664 1.2771088153 -0.024859299938 -0.0063864990272 1.2767495686 -0.024454649159
          -0.0058282418962 1.2761677039 -0.024797725435 -0.0064827821206 1.2753771665 -0.024804021866
          -0.0059046245138 1.2749833078 -0.024050166739 -0.007154728743 1.2746221528 -0.024085999328
          -0.006638575131 1.2740729295 -0.024841203923 -0.0072002630511 1.2739944563 -0.024711776951
          -0.0066176564917 1.2737422315 -0.024330012194 -0.0068281684128 1.2732310861 -0.024712345892
          -0.0049421532782 1.2772590641 -0.025807510569 -0.0058056264431 1.2768734104 -0.025329387671
          -0.005575148662 1.2761192775 -0.025205288633 -0.0067047253592 1.2755331482 -0.025401113904
          -0.0056848475259 1.27484349 -0.025110974809 -0.0065644312872 1.2743026119 -0.025221312468
          -0.0054329248379 1.2741855626 -0.025444802849 -0.0065464101781 1.2739492428 -0.025160688883
          -0.0063192350892 1.2738562305 -0.025241450464 -0.0071702779134 1.2733191609 -0.025739711118
          -0.0061358669548 1.2774976246 -0.023848654819 -0.0053044274773 1.2766593911 -0.025820214404
          -0.0053446431265 1.276394108 -0.025119533975 -0.00484122642 1.2758454814 -0.025701155043
          -0.0033805261191 1.27428852 -0.024516769193 -0.0079704034956 1.2738018095 -0.02447559213
          -0.0064435134611 1.2745412099 -0.025685170701 -0.0060589360239 1.2742122946 -0.02511804637
          -0.0059565964536 1.2735778474 -0.025790324972 -0.0050929513916 1.27360061 -0.023757379432
          -0.0011948679099 1.2790778624 -0.0300679492 -0.0042662238423 1.2767451814 -0.026754104712
          -0.0035686548838 1.27653048 -0.026619607246 -0.0041881200279 1.2755258697 -0.026736686142
          -0.0034451168475 1.2755752598 -0.025037112732 -0.0069495292953 1.2751349795 -0.024984005531
          -0.006220975837 1.2742158917 -0.026676650467 -0.0068489080321 1.2744069232 -0.026554410034
          -0.0061986000064 1.273754167 -0.026650975652 -0.0093583944697 1.2752957311 -0.030117533798
          -0.0057358489463 1.2789404154 -0.022704968682 0.00011137081672 1.2774071268 -0.029130242958
          -0.0015119776265 1.276939473 -0.027392860506 0.0010492344643 1.275017794 -0.026407575588
          -0.0042514126032 1.2714450915 -0.030163505418 -0.0052002661441 1.270887319 -0.030366150605
          -0.01066014741 1.2737181812 -0.026399805963 -0.0079922669881 1.2747248718 -0.027308622541
          -0.0097056816396 1.2742926749 -0.029199900451 -0.0036767059106 1.2749250161 -0.022531561508
          -0.009455102325 1.2782374618 -0.02178190733 -0.0099939018095 1.2778204749 -0.02187492
          -0.0087573194203 1.2761653611 -0.021323014678 -0.0085486006362 1.2755297221 -0.020970229991
          -0.0086993301095 1.2759710575 -0.022168127649 -0.0089086532543 1.2752115005 -0.021560152371
          -0.008824274049 1.2742475226 -0.020928357525 -0.0087111972415 1.2739526842 -0.021287991697
          -0.0074740949242 1.2747483082 -0.021774199598 -0.0078612837783 1.2744179701 -0.021709840927
          -0.0089782475999 1.2784456499 -0.022630753269 -0.0082834531591 1.2769896373 -0.022610766165
          -0.0084393982764 1.2766531324 -0.022305133864 -0.008227695696 1.2756318511 -0.021894417548
          -0.0083286461316 1.2754786528 -0.022035313567 -0.0082396545557 1.2749609272 -0.021962321926
          -0.0083559829482 1.2743030431 -0.021873006516 -0.008122296094 1.2744134519 -0.022220991923
          -0.0083174828859 1.2739105383 -0.02257645581 -0.0075783473231 1.2744830163 -0.022545187613
          -0.0074145091557 1.2774034865 -0.023341989076 -0.0073304785798 1.27702377 -0.023191079357
          -0.0078364931061 1.2765991424 -0.022830571765 -0.0079107438575 1.2759871119 -0.022674772603
          -0.0078781211473 1.2754809146 -0.022631356682 -0.0077490702596 1.2750186075 -0.022616935666
          -0.0077845252697 1.2746740169 -0.022631950035 -0.0078175923653 1.2744041599 -0.022739852369
          -0.008316062681 1.2739788959 -0.023091808162 -0.0082973462754 1.2734721403 -0.02322277678
          -0.0070029891597 1.277511351 -0.023833102131 -0.0075232682627 1.277083472 -0.023398787595
          -0.0074529207615 1.2765874656 -0.023386090593 -0.0074597712789 1.2760484311 -0.023360705402
          -0.0073611135769 1.2755382258 -0.023256483016 -0.0073338559202 1.2751020495 -0.023372222555
          -0.0074020851925 1.2747031764 -0.023338410837 -0.0073406525287 1.2744113342 -0.023320664476
          -0.0073500221841 1.2740405443 -0.023394814408 -0.0077723691647 1.2736002764 -0.023757025916
          -0.0064253824164 1.2776206928 -0.024661915517 -0.0067687766985 1.2772457652 -0.024116754638
          -0.0067863534641 1.2766422043 -0.024050744984 -0.0069013124935 1.2761121857 -0.023973043784
          -0.0069968945702 1.2754906225 -0.024022779982 -0.0069562771333 1.275078162 -0.023973676071
          -0.0070167055796 1.2747957918 -0.02396499479 -0.0071372827803 1.2744909692 -0.024023161964
          -0.0071560843776 1.2741906834 -0.024054991102 -0.0074680839986 1.2736957927 -0.024547685717
          -0.0058050256297 1.2782256345 -0.025281290517 -0.006370319674 1.277217572 -0.024679575199
          -0.006265288945 1.2766890505 -0.024667636545 -0.0063634614172 1.2761933251 -0.024622424793
          -0.0063355359593 1.2755381495 -0.024456187116 -0.0066753894348 1.27510484 -0.024497371072
          -0.0066957820213 1.2748548264 -0.024609986538 -0.0067716125008 1.2745112131 -0.024628796874
          -0.0066373688783 1.2741528917 -0.024616516243 -0.007252312137 1.2743584452 -0.025239640388
          -0.005272580505 1.2779816196 -0.025975630458 -0.0051357668285 1.2772753484 -0.025691174633
          -0.0057252480384 1.2767316128 -0.025225593114 -0.0060493484521 1.2760479185 -0.025425280858
          -0.0063046411203 1.2754901127 -0.025421292612 -0.0058238955344 1.2750620899 -0.02538733309
          -0.0061410176375 1.2747596492 -0.02538880435 -0.0064234833614 1.2745726539 -0.025186993854
          -0.0070719180877 1.2742380921 -0.025649292396 -0.0069289696364 1.2740855713 -0.025924230319
          -0.0054334439227 1.277478414 -0.026230538096 -0.0050137240447 1.2772276828 -0.026135029793
          -0.0054172441495 1.2767203317 -0.025593381636 -0.0045083973301 1.2761536693 -0.025585558863
          -0.0045567847717 1.2750867435 -0.025510053349 -0.0067572922608 1.2746600924 -0.025521115026
          -0.0067368475791 1.2748427949 -0.025558350831 -0.0058833286694 1.2745340234 -0.025576572409
          -0.0062908145208 1.2742224948 -0.026068152149 -0.0058458307244 1.2735238459 -0.026199712333
          -0.00272256029 1.2794644887 -0.026792894495 -0.0044121378431 1.2775245159 -0.026274376617
          -0.0046045960711 1.276192375 -0.026614235997 -0.004522456945 1.2757672191 -0.026411708793
          -0.0049219172311 1.2755172904 -0.026485872564 -0.005530017557 1.2749874814 -0.02645981895
          -0.0058528931285 1.2744621626 -0.026413187046 -0.0057963093576 1.273972114 -0.026622703396
          -0.0060218032369 1.2745473258 -0.02623418923 -0.0077497354168 1.2757050714 -0.026779326349
          -0.00087747733839 1.2792536684 -0.028288505587 -0.0011816618748 1.2783526286 -0.027362257371
          -0.0062190860713 1.2753715625 -0.028909935277 -0.0067454752855 1.2757416922 -0.027560671918
          -0.0042219674657 1.2751298545 -0.027964679937 -0.0055431581328 1.2745485601 -0.027997648764
          -0.0027745482643 1.2744360796 -0.027526851329 -0.0033536197611 1.2732434686 -0.028841811067
          -0.0083691443935 1.2753450449 -0.027291982338 -0.0084586314808 1.2752975591 -0.028196618552
          -0.0082379360819 1.2781407952 -0.021297339863 -0.010397167195 1.278318321 -0.021570974145
          -0.0093479605625 1.2771219253 -0.021017946766 -0.0090405472723 1.2769174761 -0.021791000053
          -0.0087427660838 1.2761003243 -0.021496457366 -0.0086337721571 1.2757644794 -0.02143734885
          -0.0083638116673 1.2756183541 -0.021732240369 -0.0080287101393 1.2749356773 -0.020937458907
          -0.0070074623442 1.2752624717 -0.021518242034 -0.0092141731895 1.2741933783 -0.021232123279
          -0.0092392301373 1.2790105522 -0.022847879814 -0.0087552389562 1.2780491801 -0.022409390174
          -0.0084308786104 1.2770780751 -0.02220409511 -0.0084555096019 1.2766594731 -0.022130708387
          -0.008335509481 1.2760854272 -0.022064646982 -0.008285666317 1.2757003729 -0.02210037481
          -0.0081404770709 1.2753149415 -0.022109430895 -0.0081438372969 1.2748812947 -0.022136351807
          -0.0077786655307 1.2750287192 -0.022353308581 -0.007234683211 1.2751103956 -0.022767639824
          -0.0079888387911 1.2784754005 -0.023254353741 -0.0079853191447 1.2778188135 -0.022958595652
          -0.0079672251328 1.2771705394 -0.022742432561 -0.0079850933866 1.2766197911 -0.022743123603
          -0.0078968298402 1.2761158327 -0.022741268581 -0.0078254398747 1.2756770332 -0.022784172293
          -0.0077520263243 1.2753134205 -0.022753662615 -0.0077178365582 1.2749656657 -0.022712782815
          -0.0077224127336 1.274760285 -0.022876105749 -0.0076994622789 1.2745162711 -0.023192851265
          -0.0075346056683 1.2784630407 -0.023553561381 -0.0076505378937 1.277809931 -0.02341889522
          -0.0075333949296 1.2771487088 -0.023482361236 -0.0074691620908 1.2766900192 -0.023350809001
          -0.007453237249 1.276155375 -0.023452354032 -0.0073949540411 1.2756099564 -0.023380070523
          -0.0073183422708 1.2753955816 -0.023332584023 -0.007297154495 1.2749864753 -0.023447096588
          -0.0072010091321 1.2747632298 -0.023371015118 -0.0073402389553 1.2744673199 -0.023540729164
          -0.0067540327617 1.278350255 -0.024318280457 -0.0068490767156 1.277744697 -0.024119490372
          -0.0071171915498 1.27724301 -0.024045578322 -0.0070203504595 1.2766909429 -0.024074012201
          -0.0069927722453 1.2760862625 -0.024044597351 -0.0069497480769 1.2756475492 -0.024105747093
          -0.006925558607 1.2753937082 -0.02402725617 -0.0068396675012 1.2750567208 -0.024018629244
          -0.0071107498795 1.2747014947 -0.024067685233 -0.0071548226857 1.2743957108 -0.024258937259