<?xml version="1.0"?>
<VTKFile type="UnstructuredGrid" version="0.1" byte_order="LittleEndian" compressor="vtkZLibDataCompressor">
  <UnstructuredGrid>
    <FieldData>
      <DataArray type="Float64" Name="TIME" NumberOfTuples="1" format="ascii" RangeMin="0.24762322428" RangeMax="0.24762322428">
        0.24762322428
      </DataArray>
    </FieldData>
    <Piece NumberOfPoints="1000" NumberOfCells="0">
      <PointData>
        <DataArray type="Float64" Name="Damage" format="ascii" RangeMin="0" RangeMax="0.49719101124">
          0 0 0 0 0 0
          0 0 0 0 0 0.027932960894
          0 0 0 0 0 0
          0.027932960894 0 0 0.055084745763 0.071428571429 0.040345821326
          0.014164305949 0.012987012987 0.040345821326 0.071428571429 0.055084745763 0
          0 0.067669172932 0.11239193084 0.1074168798 0.037688442211 0.034562211982
          0.1074168798 0.11239193084 0.067669172932 0 0 0.074349442379
          0.16147308782 0.16834170854 0.12376237624 0.11286681716 0.16834170854 0.16147308782
          0.074349442379 0 0 0.084459459459 0.2 0.25806451613
          0.33860045147 0.39211618257 0.25806451613 0.2 0.084459459459 0
          0 0.093984962406 0.25360230548 0.36061381074 0.41959798995 0.46774193548
          0.36061381074 0.25360230548 0.093984962406 0 0 0.10593220339
          0.31493506494 0.40057636888 0.4447592068 0.49090909091 0.40057636888 0.31493506494
          0.10593220339 0 0 0.16759776536 0.3686440678 0.43984962406
          0.44609665428 0.49662162162 0.43984962406 0.3686440678 0.16759776536 0
          0 0.1677852349 0.36734693878 0.43891402715 0.44642857143 0.49593495935
          0.43891402715 0.36734693878 0.1677852349 0 0 0
          0 0 0 0 0 0
          0 0 0 0.027906976744 0 0
          0 0 0 0 0.027906976744 0
          0 0.056338028169 0.072776280323 0.040669856459 0.014117647059 0.012931034483
          0.040669856459 0.072776280323 0.056338028169 0 0 0.06875
          0.11483253589 0.10828025478 0.0375782881 0.034416826004 0.10828025478 0.11483253589
          0.06875 0 0 0.074303405573 0.16235294118 0.16910229645
          0.12371134021 0.11257035647 0.16910229645 0.16235294118 0.074303405573 0
          0 0.084269662921 0.20043103448 0.25812619503 0.33771106942 0.39242685026
          0.25812619503 0.20043103448 0.084269662921 0 0 0.09375
          0.25358851675 0.36093418259 0.41962421712 0.46845124283 0.36093418259 0.25358851675
          0.09375 0 0 0.10563380282 0.3153638814 0.4019138756
          0.44470588235 0.49137931034 0.4019138756 0.3153638814 0.10563380282 0
          0 0.16744186047 0.36971830986 0.440625 0.44582043344 0.49719101124
          0.440625 0.36971830986 0.16744186047 0 0 0.16759776536
          0.3686440678 0.43984962406 0.44609665428 0.49662162162 0.43984962406 0.3686440678
          0.16759776536 0 0 0 0 0
          0 0 0 0 0 0
          0 0.024647887324 0 0 0 0
          0 0 0.024647887324 0 0 0.051212938005
          0.06875 0.038817005545 0.012635379061 0.011666666667 0.038817005545 0.06875
          0.051212938005 0 0 0.064593301435 0.10905730129 0.10491803279
          0.036858974359 0.034023668639 0.10491803279 0.10905730129 0.064593301435 0
          0 0.070588235294 0.15523465704 0.16506410256 0.12283464567 0.11271676301
          0.16506410256 0.15523465704 0.070588235294 0 0 0.081896551724
          0.19333333333 0.25443786982 0.33959537572 0.38985313752 0.25443786982 0.19333333333
          0.081896551724 0 0 0.093301435407 0.24768946396 0.35573770492
          0.41987179487 0.46449704142 0.35573770492 0.24768946396 0.093301435407 0
          0 0.10781671159 0.30833333333 0.39556377079 0.4440433213 0.48666666667
          0.39556377079 0.30833333333 0.10781671159 0 0 0.16197183099
          0.35579514825 0.43062200957 0.44470588235 0.49137931034 0.43062200957 0.35579514825
          0.16197183099 0 0 0.16101694915 0.3538961039 0.42939481268
          0.4447592068 0.49090909091 0.42939481268 0.3538961039 0.16101694915 0
          0 0 0 0 0 0
          0 0 0 0 0 0.025
          0 0 0 0 0 0
          0.025 0 0 0.05023923445 0.068391866913 0.039344262295
          0.012820512821 0.011834319527 0.039344262295 0.068391866913 0.05023923445 0
          0 0.063694267516 0.10819672131 0.10465116279 0.036984352774 0.034120734908
          0.10465116279 0.10819672131 0.063694267516 0 0 0.070981210856
          0.15544871795 0.16500711238 0.12290502793 0.11282051282 0.16500711238 0.15544871795
          0.070981210856 0 0 0.082217973231 0.19378698225 0.25459317585
          0.33974358974 0.38981042654 0.25459317585 0.19378698225 0.082217973231 0
          0 0.093418259023 0.24918032787 0.35610465116 0.41963015647 0.46456692913
          0.35610465116 0.24918032787 0.093418259023 0 0 0.10765550239
          0.30868761553 0.39508196721 0.44391025641 0.48668639053 0.39508196721 0.30868761553
          0.10765550239 0 0 0.1625 0.35645933014 0.43099787686
          0.44467640919 0.4913957935 0.43099787686 0.35645933014 0.1625 0
          0 0.16165413534 0.35446685879 0.42966751918 0.44472361809 0.49078341014
          0.42966751918 0.35446685879 0.16165413534 0 0 0
          0 0 0 0 0 0
          0 0 0 0.02786377709 0 0
          0 0 0 0 0.02786377709 0
          0 0.054117647059 0.070397111913 0.040064102564 0.014173228346 0.013005780347
          0.040064102564 0.070397111913 0.054117647059 0 0 0.066805845511
          0.11057692308 0.106685633 0.037709497207 0.034615384615 0.106685633 0.11057692308
          0.066805845511 0 0 0.074226804124 0.16062992126 0.16759776536
          0.12362637363 0.11292346299 0.16759776536 0.16062992126 0.074226804124 0
          0 0.084427767355 0.19942196532 0.25769230769 0.33877038896 0.39145496536
          0.25769230769 0.19942196532 0.084427767355 0 0 0.093945720251
          0.25320512821 0.35988620199 0.41899441341 0.46666666667 0.35988620199 0.25320512821
          0.093945720251 0 0 0.10588235294 0.31407942238 0.39903846154
          0.44409448819 0.48988439306 0.39903846154 0.31407942238 0.10588235294 0
          0 0.16718266254 0.36705882353 0.43841336117 0.44536082474 0.49530956848
          0.43841336117 0.36705882353 0.16718266254 0 0 0.16728624535
          0.36543909348 0.43718592965 0.44554455446 0.49435665914 0.43718592965 0.36543909348
          0.16728624535 0 0 0 0 0
          0 0 0 0 0 0
          0 0.025280898876 0 0 0 0
          0 0 0.025280898876 0 0 0.049568965517
          0.066666666667 0.038461538462 0.013005780347 0.012016021362 0.038461538462 0.066666666667
          0.049568965517 0 0 0.06309751434 0.1050295858 0.10367454068
          0.037179487179 0.034360189573 0.10367454068 0.1050295858 0.06309751434 0
          0 0.071294559099 0.15462427746 0.1641025641 0.12296110414 0.11316397229
          0.1641025641 0.15462427746 0.071294559099 0 0 0.082616179002
          0.19359145527 0.25473933649 0.34064665127 0.38930481283 0.25473933649 0.19359145527
          0.082616179002 0 0 0.093690248566 0.24852071006 0.35564304462
          0.41923076923 0.46327014218 0.35564304462 0.24852071006 0.093690248566 0
          0 0.10775862069 0.30833333333 0.39349112426 0.4436416185 0.48598130841
          0.39349112426 0.30833333333 0.10775862069 0 0 0.16292134831
          0.35560344828 0.43021032505 0.44465290807 0.49053356282 0.43021032505 0.35560344828
          0.16292134831 0 0 0.16216216216 0.35324675325 0.42857142857
          0.44469525959 0.48962655602 0.42857142857 0.35324675325 0.16216216216 0
          0 0 0 0 0 0
          0 0 0 0 0 0.025
          0 0 0 0 0 0
          0.025 0 0 0.05023923445 0.068391866913 0.039344262295
          0.012820512821 0.011834319527 0.039344262295 0.068391866913 0.05023923445 0
          0 0.063694267516 0.10819672131 0.10465116279 0.036984352774 0.034120734908
          0.10465116279 0.10819672131 0.063694267516 0 0 0.070981210856
          0.15544871795 0.16500711238 0.12290502793 0.11282051282 0.16500711238 0.15544871795
          0.070981210856 0 0 0.082217973231 0.19378698225 0.25459317585
          0.33974358974 0.38981042654 0.25459317585 0.19378698225 0.082217973231 0
          0 0.093418259023 0.24918032787 0.35610465116 0.41963015647 0.46456692913
          0.35610465116 0.24918032787 0.093418259023 0 0 0.10765550239
          0.30868761553 0.39508196721 0.44391025641 0.48668639053 0.39508196721 0.30868761553
          0.10765550239 0 0 0.1625 0.35645933014 0.43099787686
          0.44467640919 0.4913957935 0.43099787686 0.35645933014 0.1625 0
          0 0.16165413534 0.35446685879 0.42966751918 0.44472361809 0.49078341014
          0.42966751918 0.35446685879 0.16165413534 0 0 0
          0 0 0 0 0 0
          0 0 0 0.024647887324 0 0
          0 0 0 0 0.024647887324 0
          0 0.051212938005 0.06875 0.038817005545 0.012635379061 0.011666666667
          0.038817005545 0.06875 0.051212938005 0 0 0.064593301435
          0.10905730129 0.10491803279 0.036858974359 0.034023668639 0.10491803279 0.10905730129
          0.064593301435 0 0 0.070588235294 0.15523465704 0.16506410256
          0.12283464567 0.11271676301 0.16506410256 0.15523465704 0.070588235294 0
          0 0.081896551724 0.19333333333 0.25443786982 0.33959537572 0.38985313752
          0.25443786982 0.19333333333 0.081896551724 0 0 0.093301435407
          0.24768946396 0.35573770492 0.41987179487 0.46449704142 0.35573770492 0.24768946396
          0.093301435407 0 0 0.10781671159 0.30833333333 0.39556377079
          0.4440433213 0.48666666667 0.39556377079 0.30833333333 0.10781671159 0
          0 0.16197183099 0.35579514825 0.43062200957 0.44470588235 0.49137931034
          0.43062200957 0.35579514825 0.16197183099 0 0 0.16101694915
          0.3538961039 0.42939481268 0.4447592068 0.49090909091 0.42939481268 0.3538961039
          0.16101694915 0 0 0 0 0
          0 0 0 0 0 0
          0 0.027906976744 0 0 0 0
          0 0 0.027906976744 0 0 0.056338028169
          0.072776280323 0.040669856459 0.014117647059 0.012931034483 0.040669856459 0.072776280323
          0.056338028169 0 0 0.06875 0.11483253589 0.10828025478
          0.0375782881 0.034416826004 0.10828025478 0.11483253589 0.06875 0
          0 0.074303405573 0.16235294118 0.16910229645 0.12371134021 0.11257035647
          0.16910229645 0.16235294118 0.074303405573 0 0 0.084269662921
          0.20043103448 0.25812619503 0.33771106942 0.39242685026 0.25812619503 0.20043103448
          0.084269662921 0 0 0.09375 0.25358851675 0.36093418259
          0.41962421712 0.46845124283 0.36093418259 0.25358851675 0.09375 0
          0 0.10563380282 0.3153638814 0.4019138756 0.44470588235 0.49137931034
          0.4019138756 0.3153638814 0.10563380282 0 0 0.16744186047
          0.36971830986 0.440625 0.44582043344 0.49719101124 0.440625 0.36971830986
          0.16744186047 0 0 0.16759776536 0.3686440678 0.43984962406
          0.44609665428 0.49662162162 0.43984962406 0.3686440678 0.16759776536 0
          0 0 0 0 0 0
          0 0 0 0 0 0.027932960894
          0 0 0 0 0 0
          0.027932960894 0 0 0.055084745763 0.071428571429 0.040345821326
          0.014164305949 0.012987012987 0.040345821326 0.071428571429 0.055084745763 0
          0 0.067669172932 0.11239193084 0.1074168798 0.037688442211 0.034562211982
          0.1074168798 0.11239193084 0.067669172932 0 0 0.074349442379
          0.16147308782 0.16834170854 0.12376237624 0.11286681716 0.16834170854 0.16147308782
          0.074349442379 0 0 0.084459459459 0.2 0.25806451613
          0.33860045147 0.39211618257 0.25806451613 0.2 0.084459459459 0
          0 0.093984962406 0.25360230548 0.36061381074 0.41959798995 0.46774193548
          0.36061381074 0.25360230548 0.093984962406 0 0 0.10593220339
          0.31493506494 0.40057636888 0.4447592068 0.49090909091 0.40057636888 0.31493506494
          0.10593220339 0 0 0.16759776536 0.3686440678 0.43984962406
          0.44609665428 0.49662162162 0.43984962406 0.3686440678 0.16759776536 0
          0 0.1677852349 0.36734693878 0.43891402715 0.44642857143 0.49593495935
          0.43891402715 0.36734693878 0.1677852349 0
        </DataArray>
        <DataArray type="Float64" Name="Displacement" NumberOfComponents="3" format="ascii" RangeMin="1.608354556" RangeMax="1.6209587724">
          -0.0039868429914 1.6146994644 -0.010787280828 -0.0042571673679 1.611989179 -0.011008761166
          -0.0049593175037 1.612215507 -0.010762205285 -0.0051018460324 1.6134236624 -0.01210067337
          -0.0048894478546 1.6134075802 -0.012417929851 -0.0047421573281 1.6130269473 -0.012378303143
          -0.0046755637712 1.6126631942 -0.01211364034 -0.0047342255205 1.6110021285 -0.010756842188
          -0.0054712673589 1.6101642294 -0.011057166032 -0.0058285888953 1.6124388582 -0.010739973252
          -0.0039084397596 1.6125065543 -0.012688435929 -0.005884924586 1.614377779 -0.012456629173
          -0.0047495592817 1.6117864111 -0.011070793474 -0.0047152343913 1.6133686725 -0.012377647234
          -0.0044540138711 1.6134810524 -0.012727585308 -0.0045860494137 1.6129172465 -0.012572371322
          -0.0046047426706 1.6127056722 -0.012477761748 -0.0045264040345 1.610467663 -0.010983493824
          -0.0033837454048 1.6126317714 -0.012503671757 -0.0054164966508 1.6102367164 -0.012815580204
          -0.003926700437 1.6134723707 -0.013081803519 -0.0045308417308 1.6138358329 -0.012555984084
          -0.0047226141669 1.6137154362 -0.012708966478 -0.0045728095743 1.6133416909 -0.01252275386
          -0.0043705642416 1.614155174 -0.01342823353 -0.0045447316396 1.6140200387 -0.01336850138
          -0.0041970122224 1.6124370543 -0.012450758222 -0.0040802953024 1.6123732321 -0.012694411837
          -0.0042952117341 1.6120794558 -0.012545212241 -0.0048321311565 1.6113054572 -0.013109529577
          -0.0036378880379 1.6136458896 -0.013653718415 -0.0038026213015 1.614231814 -0.013080436086
          -0.0040326480331 1.6135263572 -0.012946678374 -0.0034277616575 1.6139634713 -0.013268029171
          -0.0041318268804 1.6129614481 -0.012686596066 -0.0040783295314 1.6127523868 -0.012626630387
          -0.0048289979627 1.6131550089 -0.013281125036 -0.0041867780672 1.6122413556 -0.012915691085
          -0.0044015507409 1.6124310591 -0.013029427437 -0.0046171440147 1.6113327985 -0.013574803746
          -0.0035940271096 1.6140801207 -0.013732869517 -0.0031651644046 1.6142152743 -0.013683854171
          -0.0035762166208 1.6129738406 -0.013414489998 -0.0039609483843 1.6128841647 -0.013269840626
          -0.0032078543096 1.6135888239 -0.012873383959 -0.0041226666197 1.6128472253 -0.013191952532
          -0.0038059176392 1.6122757192 -0.013337735522 -0.0041647047801 1.6117072254 -0.013391713868
          -0.0045257986075 1.6123364406 -0.013628597638 -0.0041482570522 1.6118124931 -0.013699657195
          -0.0032451146778 1.6145762229 -0.014088312469 -0.0025238974995 1.6140541324 -0.014590758129
          -0.0035821416834 1.6127558788 -0.014271317514 -0.0035232700425 1.6131799449 -0.013761944102
          -0.0034707013079 1.6130112253 -0.013721451173 -0.0038952780954 1.6127316694 -0.013712541104
          -0.0037197034991 1.6124857289 -0.013773028289 -0.003657261377 1.6115531381 -0.014257705671
          -0.0046527727384 1.6122380491 -0.014572569096 -0.0040271109228 1.6123357036 -0.014107994919
          -0.0024312720721 1.6134651496 -0.015376988597 -0.0027033456327 1.6136212412 -0.014803209965
          -0.0036229631076 1.6134075329 -0.014042401612 -0.0056500340385 1.6134115304 -0.014083553404
          -0.0011680802745 1.6122431181 -0.012540068134 -0.0056693685303 1.6120991779 -0.012437550598
          -0.0010521189236 1.6126861269 -0.014070030608 -0.0030881314104 1.6121522947 -0.014071592059
          -0.0040318146508 1.6118042067 -0.014826233673 -0.0043737162596 1.6111685286 -0.015420555645
          -0.0010576212659 1.6151655394 -0.016016850556 -0.0060267617424 1.6133309019 -0.01314721709
          -0.0039072291898 1.6137899583 -0.013777261839 0.00090181709771 1.6139804342 -0.012149418451
          -0.0074655178505 1.6128510936 -0.016887100499 0.0012354832397 1.6126353255 -0.016848628129
          -0.0071724676588 1.6132559896 -0.012100392389 -0.0022998678201 1.612502735 -0.013765470233
          -0.00010548544024 1.6115389096 -0.01308313372 -0.0051048902879 1.6130269192 -0.015882392631
          -0.0027586710079 1.6118738454 -0.015875299842 -0.0052706516709 1.6118974027 -0.014678154802
          -0.0037531733224 1.6111041871 -0.015870519113 -0.0036594147148 1.6133666872 -0.014442940718
          -0.0015647018428 1.6114689565 -0.015505289215 -0.0041089667452 1.6112534477 -0.015366635048
          -0.0020310676708 1.612605244 -0.014354679243 -0.0020368190149 1.6097961995 -0.015847968187
          -0.00039943252098 1.6101631469 -0.014579672888 -0.0028650287131 1.6095900781 -0.015739244242
          -0.0071236779441 1.614721329 -0.012717432867 -0.0027146368962 1.6128115905 -0.018418134055
          -0.003382419047 1.6158440469 -0.014896468938 -0.0014279583549 1.6174894663 -0.010774925394
          -0.0055345395479 1.6085876932 -0.021666821826 0.00035532975705 1.6083122693 -0.02158457385
          -0.003697776041 1.6168048211 -0.010551612975 -0.0018032431743 1.6145302929 -0.014810560612
          -0.002438117547 1.6111968112 -0.018117033676 0.0020976466685 1.612642065 -0.012189096404
          -0.0051647808078 1.6136550278 -0.011604021346 -0.0049849902412 1.6138168038 -0.011831748161
          -0.0051039197991 1.6128346441 -0.010266771766 -0.004840307692 1.6140855701 -0.012178614164
          -0.004646942799 1.6138921574 -0.01247834656 -0.0049744263695 1.6134430745 -0.012185215459
          -0.0049491021166 1.6133871416 -0.012316816757 -0.0047183607226 1.6115699726 -0.010230205816
          -0.0047824691545 1.6120948383 -0.011888911237 -0.0046722953217 1.6113158175 -0.011622238204
          -0.0050917233506 1.6155582617 -0.013396282976 -0.004482427196 1.6137358647 -0.011815411311
          -0.0042591329212 1.6135144569 -0.012484122891 -0.004493461267 1.6137940965 -0.012628775862
          -0.004592943793 1.6134136204 -0.012267325249 -0.0046467817155 1.6129327697 -0.01212850642
          -0.0048059071594 1.6130404437 -0.012618456536 -0.0050717282553 1.612231207 -0.012489210218
          -0.0047973481879 1.6119638407 -0.01179678995 -0.004132071141 1.6132847093 -0.013307425461
          -0.0050494037443 1.6145047474 -0.012279520229 -0.0043384098155 1.6138036592 -0.012479040976
          -0.0042791629853 1.6137620943 -0.012594461541 -0.0044111705421 1.6137432072 -0.012688788939
          -0.0043602314576 1.6135822544 -0.012829085396 -0.0044536375929 1.6132945777 -0.01284974718
          -0.00435853131 1.6130255998 -0.012693662703 -0.0045085456764 1.6124857902 -0.012597089944
          -0.0044203855864 1.6119631263 -0.01242611332 -0.0037368652281 1.6122130288 -0.012224760891
          -0.0042536480726 1.6142957324 -0.014235223763 -0.0046155650175 1.6138722753 -0.012855964495
          -0.004276151772 1.6137498102 -0.013045405688 -0.0042984318221 1.6133370168 -0.012557215356
          -0.0041024672307 1.6134353409 -0.012772485752 -0.0041538604027 1.6132234688 -0.012893783098
          -0.0039467651635 1.6125690664 -0.012518415531 -0.0039669987279 1.6124988798 -0.013046554101
          -0.0036043880813 1.612080603 -0.01281394703 -0.0040268332879 1.6120085578 -0.014152702171
          -0.0040912238477 1.613834294 -0.014505926554 -0.0045199345277 1.6133952512 -0.0134345772
          -0.0041125046192 1.6136447064 -0.013346111644 -0.0039937117841 1.6135598234 -0.013361409627
          -0.0039445114732 1.6134531196 -0.013199519792 -0.0037967540122 1.6131742673 -0.013170196082
          -0.00371294347 1.6128105289 -0.013311242388 -0.003596707378 1.6123754526 -0.01331291477
          -0.0031935422747 1.6115836495 -0.013388860215 -0.0036763844585 1.6114951302 -0.014417406252
          -0.0039971649209 1.6136991526 -0.014194037816 -0.0043550678465 1.6136726729 -0.013739438972
          -0.0040358301341 1.6135613057 -0.014035974787 -0.0040131984359 1.6134779552 -0.014005010937
          -0.0037802205863 1.6134958823 -0.01381484851 -0.003465883787 1.6132035317 -0.013823450166
          -0.0032384889512 1.6127480274 -0.013906466928 -0.0032006139816 1.6123070744 -0.014002455513
          -0.0028480372636 1.6118848773 -0.013726973791 -0.0032580269054 1.6113718673 -0.014115730202
          -0.0039256060667 1.6138535877 -0.014490281714 -0.0037329301359 1.6135459744 -0.014564688596
          -0.003713085322 1.6135392482 -0.014260481931 -0.0030908491632 1.6137949865 -0.013630680319
          -0.003938638906 1.613618724 -0.014114988033 -0.0028399192332 1.6133006051 -0.014149325549
          -0.0035823767598 1.6130337316 -0.013637907102 -0.0029949759001 1.6122680774 -0.014235358512
          -0.0029669681547 1.6117650859 -0.014539920467 -0.002832187688 1.6115283604 -0.014424112895
          -0.0046313345508 1.6134212555 -0.014122787137 -0.0038956112629 1.613321756 -0.014806508889
          -0.0035154834028 1.6134278364 -0.015120550915 -0.0036409098348 1.6133409141 -0.014572221692
          -0.0033092673321 1.6143103431 -0.013781325662 -0.0029111036742 1.6140814971 -0.013711257835
          -0.002555231784 1.6126082425 -0.014515629777 -0.0026799677546 1.6121837977 -0.015076705174
          -0.0023191916972 1.6115423526 -0.014771429151 -0.0015671117602 1.6111289383 -0.014011429455
          -0.00019259250497 1.6171841503 -0.015712441839 -0.0035044584006 1.6133714772 -0.015150720178
          -0.0031911210649 1.6142746639 -0.014338371567 -0.0031761169612 1.6141353599 -0.01452119841
          -0.002072943796 1.6128113883 -0.013497795522 -0.0035890730572 1.6126335929 -0.013486372785
          -0.0025417956574 1.6133726089 -0.014489933568 -0.0025128534002 1.6130137736 -0.014347344534
          -0.0022457290605 1.6116159055 -0.015158542246 -0.0054787891909 1.6149009421 -0.015732122512
          -0.0014165520691 1.6136955039 -0.017609768778 0.0030860527468 1.6167308536 -0.016060842966
          -0.00095553871505 1.6149727224 -0.014291614718 -0.0028755313917 1.6150841844 -0.013929498646
          -0.0029567829271 1.6144252603 -0.012693161672 -0.0021658739685 1.6143053015 -0.012566071027
          -0.0023333062215 1.6143380089 -0.013898618869 -0.0042991990297 1.6137591628 -0.01425715887
          -0.0081846759038 1.6148967359 -0.016051289308 -0.0035594632152 1.6112012131 -0.017596067671
          -0.0042634682735 1.6138484558 -0.011662646298 -0.0045394494681 1.6147539744 -0.012251901306
          -0.0042576212721 1.6138324869 -0.012068870729 -0.0048346399602 1.6137944494 -0.011694556244
          -0.0048619342698 1.6132192809 -0.01134964882 -0.0048898048856 1.6131485188 -0.011531259537
          -0.0050096733473 1.6130128194 -0.011674660536 -0.0055628961947 1.6125935285 -0.01207618629
          -0.0053165836821 1.6129318462 -0.012239238456 -0.0055788199282 1.6115368697 -0.011643908948
          -0.0037614997022 1.613746236 -0.012336229593 -0.0042814301891 1.6145289951 -0.012653472624
          -0.0044542020077 1.6140812938 -0.012324015605 -0.0045610419403 1.6140024476 -0.012346988682
          -0.0046294390334 1.6138701602 -0.012377481918 -0.0046380943372 1.6135759794 -0.012346138645
          -0.0047208593188 1.6132594449 -0.012341945604 -0.0048366944794 1.6128383029 -0.012333950013
          -0.0050151415609 1.6127504703 -0.012621271813 -0.0056059210613 1.6113956836 -0.012266966671
          -0.0045446858789 1.6148444884 -0.013169081808 -0.0045099351851 1.6141956989 -0.012625894522
          -0.0043172133123 1.6141468333 -0.01264523047 -0.0043852853758 1.6140827799 -0.012800252673
          -0.0043955674002 1.6138341224 -0.012744546413 -0.0044709293551 1.6136792668 -0.012673063674
          -0.0044130186693 1.6133212976 -0.01279641613 -0.0045137589125 1.6128768148 -0.012630636388
          -0.0043309903637 1.612385814 -0.012632636615 -0.0042085394921 1.6125290145 -0.013135342715
          -0.0041829944188 1.6140212587 -0.01302307065 -0.004398211372 1.6142762395 -0.013116298568
          -0.0041486202832 1.614136822 -0.013055984047 -0.0041012164338 1.6140729777 -0.013029419708
          -0.0040746876791 1.6139291038 -0.01298908343 -0.0041678708845 1.6136309886 -0.013015277216
          -0.0041735195209 1.6132761472 -0.013013781481 -0.0041451321206 1.61287226 -0.013021577455
          -0.0038667143964 1.6124619502 -0.013085954007 -0.0040841631573 1.6117021557 -0.012997537445
          -0.0040444224093 1.614147441 -0.013803140478 -0.0044048902093 1.6140548844 -0.013339024315
          -0.0040447594185 1.6140575974 -0.01344733355 -0.003848072777 1.6140950489 -0.013394632746
          -0.0038760727029 1.6140143448 -0.013304054917 -0.0039047312405 1.6136732966 -0.013274163271
          -0.0038952784864 1.613340859 -0.013403070336 -0.0036955023465 1.6127798729 -0.013423824025
          -0.0033487851786 1.6122611151 -0.013310463488 -0.0037109776403 1.611842078 -0.013805527453
          -0.0040420453095 1.6139864877 -0.014254669595 -0.0044039871288 1.6140862389 -0.013730238572
          -0.0039531220786 1.6141199882 -0.013882553016 -0.0039400421436 1.6139596932 -0.013816862255
          -0.0040072347272 1.6139372442 -0.013706748779 -0.0032025087735 1.6136814982 -0.013679240213
          -0.0033054784537 1.6131991581 -0.013792005824 -0.0032782192848 1.6128503047 -0.013855681682
          -0.0028036906171 1.6123014382 -0.013693479326 -0.0031809870881 1.6116912459 -0.014230770762
          -0.0041912833564 1.6142223734 -0.014133070685 -0.0043733707911 1.6139871218 -0.014195325609
          -0.0042199642007 1.6139386759 -0.014213151803 -0.0041932077461 1.6138994863 -0.014220601169
          -0.0032145268113 1.6138624259 -0.013732364688 -0.0035185468404 1.6136378679 -0.013706613551
          -0.0025592816238 1.6131276802 -0.014209048522 -0.0024862612363 1.6126567584 -0.014191912204
          -0.0023502859783 1.6122184625 -0.014166655995 -0.00252202199 1.6119266357 -0.014088893355
          -0.0037581887627 1.6139799394 -0.015026354453 -0.0039011356315 1.6144359068 -0.014347328539
          -0.0041581712761 1.6138320513 -0.014666556068 -0.0036759219558 1.6138060815 -0.014600128828
          -0.004206026517 1.6144102396 -0.014513959291 -0.0020102015092 1.6140824682 -0.014554250567
          -0.0024936820519 1.6130565478 -0.014579041544 -0.0020121559799 1.6125645446 -0.014633268428
          -0.0022538955318 1.6126512179 -0.014291063264 -0.0024832128083 1.6117243528 -0.01502488971
          -0.0017902672605 1.6153217639 -0.015689084489 -0.0032374577161 1.6150557135 -0.014469719836
          -0.0042875303534 1.6131469616 -0.015299817055 -0.005135251521 1.6137355255 -0.015307047468
          -0.0026444492137 1.6140391441 -0.013430970866 -0.0030544531839 1.613760852 -0.013418036336
          -0.00059188930536 1.6129746941 -0.015258251781 -0.0014127554331 1.6119164044 -0.015245166086
          -0.00241680708 1.6132828199 -0.014413097393 -0.0039426791172 1.6131061694 -0.015663986185
          -0.00045170776844 1.6190084703 -0.015603519093 -0.0026969757368 1.6141149448 -0.017397444554
          -0.0023499547666 1.6130557426 -0.01657583984 -0.007423156713 1.6156167995 -0.015635161483
          -0.0023068184554 1.6137822358 -0.014492212656 -0.002930702353 1.6134999818 -0.01443456708
          0.0022460413374 1.6148476041 -0.015613517885 -0.0028499233128 1.6118272179 -0.016601746505
          -0.002371938337 1.6123580722 -0.017357631239 -0.0045764545021 1.6166108776 -0.015556725681
          -0.005359975162 1.6154467216 -0.011932916048 -0.0048301289824 1.6149574699 -0.011650845355
          -0.0052968146328 1.6148890763 -0.011904837594 -0.0045711081303 1.6139830917 -0.011627819483
          -0.0048932429578 1.6142490189 -0.012136378535 -0.0049790012746 1.6139966637 -0.012052671657
          -0.0052476542607 1.6131797865 -0.011610946773 -0.0044893535566 1.6136594944 -0.011942933219
          -0.004945721256 1.613122422 -0.011659923043 -0.0043533502925 1.6132624744 -0.011892259732
          -0.0049055704198 1.6148776075 -0.012256876095 -0.0051560628736 1.6152578265 -0.012373966534
          -0.004525854244 1.6145618951 -0.012369749741 -0.0046133866659 1.6143972344 -0.012353975859
          -0.0046412550056 1.6141572928 -0.012372070394 -0.0046735799278 1.6139092127 -0.012353776309
          -0.0046875598014 1.6135995942 -0.012341545177 -0.0047791572488 1.6132663662 -0.012355061605
          -0.0040854554525 1.6135241052 -0.012347567016 -0.0044164560251 1.6126612246 -0.012217102516
          -0.0039539681186 1.6140893036 -0.012654532376 -0.0041385986006 1.6144871367 -0.012787168589
          -0.0043324326905 1.6145510726 -0.012694718513 -0.0043235557162 1.6145007639 -0.012692164064
          -0.0043390185841 1.6142984256 -0.012691398926 -0.0044298584962 1.6140517766 -0.012672717503
          -0.0044504434135 1.613706005 -0.0127107853 -0.004468486643 1.6132657438 -0.012695716314
          -0.0046655679552 1.6126995916 -0.012784200362 -0.0048018187045 1.6118008761 -0.012641959053
          -0.0040156300682 1.6145832697 -0.013456330581 -0.0041254576993 1.6145450826 -0.013107856282
          -0.0041620608197 1.6145782988 -0.013103361119 -0.0040214497745 1.6144543156 -0.013034357139
          -0.0041427912957 1.6142961435 -0.013086914365 -0.0041658720373 1.6139796974 -0.013049862835
          -0.0041597048947 1.6137006587 -0.013087126093 -0.0041263250865 1.6132971069 -0.013093443232
          -0.00411796957 1.6127529346 -0.013078958535 -0.004251539547 1.6122633937 -0.013442751488
          -0.0042092943153 1.6142954312 -0.013386001796 -0.0039835935632 1.6145424828 -0.013508011919
          -0.003915260684 1.614560345 -0.013436552804 -0.0039326778529 1.6144313269 -0.013378550685
          -0.0038792282111 1.6143246534 -0.013378422713 -0.0039480027347 1.6140476604 -0.013422201193
          -0.003822407475 1.6136774045 -0.013367190151 -0.0038436448958 1.6132635348 -0.013422147307
          -0.0037682838902 1.6127414383 -0.013487019717 -0.0035442579494 1.6119619394 -0.013379752122