<?xml version="1.0"?>
<VTKFile type="UnstructuredGrid" version="0.1" byte_order="LittleEndian" compressor="vtkZLibDataCompressor">
  <UnstructuredGrid>
    <FieldData>
      <DataArray type="Float64" Name="TIME" NumberOfTuples="1" format="ascii" RangeMin="0.31179707021" RangeMax="0.31179707021">
        0.31179707021
      </DataArray>
    </FieldData>
    <Piece NumberOfPoints="1000" NumberOfCells="0">
      <PointData>
        <DataArray type="Float64" Name="Damage" format="ascii" RangeMin="0" RangeMax="0.49719101124">
          0 0 0 0 0 0
          0 0 0 0 0 0.027932960894
          0 0 0 0 0 0
          0.027932960894 0 0 0.055084745763 0.071428571429 0.040345821326
          0.014164305949 0.012987012987 0.040345821326 0.071428571429 0.055084745763 0
          0 0.067669172932 0.11239193084 0.1074168798 0.037688442211 0.034562211982
          0.1074168798 0.11239193084 0.067669172932 0 0 0.074349442379
          0.16147308782 0.16834170854 0.12376237624 0.11286681716 0.16834170854 0.16147308782
          0.074349442379 0 0 0.084459459459 0.2 0.25806451613
          0.33860045147 0.39211618257 0.25806451613 0.2 0.084459459459 0
          0 0.093984962406 0.25360230548 0.36061381074 0.41959798995 0.46774193548
          0.36061381074 0.25360230548 0.093984962406 0 0 0.10593220339
          0.31493506494 0.40057636888 0.4447592068 0.49090909091 0.40057636888 0.31493506494
          0.10593220339 0 0 0.16759776536 0.3686440678 0.43984962406
          0.44609665428 0.49662162162 0.43984962406 0.3686440678 0.16759776536 0
          0 0.1677852349 0.36734693878 0.43891402715 0.44642857143 0.49593495935
          0.43891402715 0.36734693878 0.1677852349 0 0 0
          0 0 0 0 0 0
          0 0 0 0.027906976744 0 0
          0 0 0 0 0.027906976744 0
          0 0.056338028169 0.072776280323 0.040669856459 0.014117647059 0.012931034483
          0.040669856459 0.072776280323 0.056338028169 0 0 0.06875
          0.11483253589 0.10828025478 0.0375782881 0.034416826004 0.10828025478 0.11483253589
          0.06875 0 0 0.074303405573 0.16235294118 0.16910229645
          0.12371134021 0.11257035647 0.16910229645 0.16235294118 0.074303405573 0
          0 0.084269662921 0.20043103448 0.25812619503 0.33771106942 0.39242685026
          0.25812619503 0.20043103448 0.084269662921 0 0 0.09375
          0.25358851675 0.36093418259 0.41962421712 0.46845124283 0.36093418259 0.25358851675
          0.09375 0 0 0.10563380282 0.3153638814 0.4019138756
          0.44470588235 0.49137931034 0.4019138756 0.3153638814 0.10563380282 0
          0 0.16744186047 0.36971830986 0.440625 0.44582043344 0.49719101124
          0.440625 0.36971830986 0.16744186047 0 0 0.16759776536
          0.3686440678 0.43984962406 0.44609665428 0.49662162162 0.43984962406 0.3686440678
          0.16759776536 0 0 0 0 0
          0 0 0 0 0 0
          0 0.024647887324 0 0 0 0
          0 0 0.024647887324 0 0 0.051212938005
          0.06875 0.038817005545 0.012635379061 0.011666666667 0.038817005545 0.06875
          0.051212938005 0 0 0.064593301435 0.10905730129 0.10491803279
          0.036858974359 0.034023668639 0.10491803279 0.10905730129 0.064593301435 0
          0 0.070588235294 0.15523465704 0.16506410256 0.12283464567 0.11271676301
          0.16506410256 0.15523465704 0.070588235294 0 0 0.081896551724
          0.19333333333 0.25443786982 0.33959537572 0.38985313752 0.25443786982 0.19333333333
          0.081896551724 0 0 0.093301435407 0.24768946396 0.35573770492
          0.41987179487 0.46449704142 0.35573770492 0.24768946396 0.093301435407 0
          0 0.10781671159 0.30833333333 0.39556377079 0.4440433213 0.48666666667
          0.39556377079 0.30833333333 0.10781671159 0 0 0.16197183099
          0.35579514825 0.43062200957 0.44470588235 0.49137931034 0.43062200957 0.35579514825
          0.16197183099 0 0 0.16101694915 0.3538961039 0.42939481268
          0.4447592068 0.49090909091 0.42939481268 0.3538961039 0.16101694915 0
          0 0 0 0 0 0
          0 0 0 0 0 0.025
          0 0 0 0 0 0
          0.025 0 0 0.05023923445 0.068391866913 0.039344262295
          0.012820512821 0.011834319527 0.039344262295 0.068391866913 0.05023923445 0
          0 0.063694267516 0.10819672131 0.10465116279 0.036984352774 0.034120734908
          0.10465116279 0.10819672131 0.063694267516 0 0 0.070981210856
          0.15544871795 0.16500711238 0.12290502793 0.11282051282 0.16500711238 0.15544871795
          0.070981210856 0 0 0.082217973231 0.19378698225 0.25459317585
          0.33974358974 0.38981042654 0.25459317585 0.19378698225 0.082217973231 0
          0 0.093418259023 0.24918032787 0.35610465116 0.41963015647 0.46456692913
          0.35610465116 0.24918032787 0.093418259023 0 0 0.10765550239
          0.30868761553 0.39508196721 0.44391025641 0.48668639053 0.39508196721 0.30868761553
          0.10765550239 0 0 0.1625 0.35645933014 0.43099787686
          0.44467640919 0.4913957935 0.43099787686 0.35645933014 0.1625 0
          0 0.16165413534 0.35446685879 0.42966751918 0.44472361809 0.49078341014
          0.42966751918 0.35446685879 0.16165413534 0 0 0
          0 0 0 0 0 0
          0 0 0 0.02786377709 0 0
          0 0 0 0 0.02786377709 0
          0 0.054117647059 0.070397111913 0.040064102564 0.014173228346 0.013005780347
          0.040064102564 0.070397111913 0.054117647059 0 0 0.066805845511
          0.11057692308 0.106685633 0.037709497207 0.034615384615 0.106685633 0.11057692308
          0.066805845511 0 0 0.074226804124 0.16062992126 0.16759776536
          0.12362637363 0.11292346299 0.16759776536 0.16062992126 0.074226804124 0
          0 0.084427767355 0.19942196532 0.25769230769 0.33877038896 0.39145496536
          0.25769230769 0.19942196532 0.084427767355 0 0 0.093945720251
          0.25320512821 0.35988620199 0.41899441341 0.46666666667 0.35988620199 0.25320512821
          0.093945720251 0 0 0.10588235294 0.31407942238 0.39903846154
          0.44409448819 0.48988439306 0.39903846154 0.31407942238 0.10588235294 0
          0 0.16718266254 0.36705882353 0.43841336117 0.44536082474 0.49530956848
          0.43841336117 0.36705882353 0.16718266254 0 0 0.16728624535
          0.36543909348 0.43718592965 0.44554455446 0.49435665914 0.43718592965 0.36543909348
          0.16728624535 0 0 0 0 0
          0 0 0 0 0 0
          0 0.025280898876 0 0 0 0
          0 0 0.025280898876 0 0 0.049568965517
          0.066666666667 0.038461538462 0.013005780347 0.012016021362 0.038461538462 0.066666666667
          0.049568965517 0 0 0.06309751434 0.1050295858 0.10367454068
          0.037179487179 0.034360189573 0.10367454068 0.1050295858 0.06309751434 0
          0 0.071294559099 0.15462427746 0.1641025641 0.12296110414 0.11316397229
          0.1641025641 0.15462427746 0.071294559099 0 0 0.082616179002
          0.19359145527 0.25473933649 0.34064665127 0.38930481283 0.25473933649 0.19359145527
          0.082616179002 0 0 0.093690248566 0.24852071006 0.35564304462
          0.41923076923 0.46327014218 0.35564304462 0.24852071006 0.093690248566 0
          0 0.10775862069 0.30833333333 0.39349112426 0.4436416185 0.48598130841
          0.39349112426 0.30833333333 0.10775862069 0 0 0.16292134831
          0.35560344828 0.43021032505 0.44465290807 0.49053356282 0.43021032505 0.35560344828
          0.16292134831 0 0 0.16216216216 0.35324675325 0.42857142857
          0.44469525959 0.48962655602 0.42857142857 0.35324675325 0.16216216216 0
          0 0 0 0 0 0
          0 0 0 0 0 0.025
          0 0 0 0 0 0
          0.025 0 0 0.05023923445 0.068391866913 0.039344262295
          0.012820512821 0.011834319527 0.039344262295 0.068391866913 0.05023923445 0
          0 0.063694267516 0.10819672131 0.10465116279 0.036984352774 0.034120734908
          0.10465116279 0.10819672131 0.063694267516 0 0 0.070981210856
          0.15544871795 0.16500711238 0.12290502793 0.11282051282 0.16500711238 0.15544871795
          0.070981210856 0 0 0.082217973231 0.19378698225 0.25459317585
          0.33974358974 0.38981042654 0.25459317585 0.19378698225 0.082217973231 0
          0 0.093418259023 0.24918032787 0.35610465116 0.41963015647 0.46456692913
          0.35610465116 0.24918032787 0.093418259023 0 0 0.10765550239
          0.30868761553 0.39508196721 0.44391025641 0.48668639053 0.39508196721 0.30868761553
          0.10765550239 0 0 0.1625 0.35645933014 0.43099787686
          0.44467640919 0.4913957935 0.43099787686 0.35645933014 0.1625 0
          0 0.16165413534 0.35446685879 0.42966751918 0.44472361809 0.49078341014
          0.42966751918 0.35446685879 0.16165413534 0 0 0
          0 0 0 0 0 0
          0 0 0 0.024647887324 0 0
          0 0 0 0 0.024647887324 0
          0 0.051212938005 0.06875 0.038817005545 0.012635379061 0.011666666667
          0.038817005545 0.06875 0.051212938005 0 0 0.064593301435
          0.10905730129 0.10491803279 0.036858974359 0.034023668639 0.10491803279 0.10905730129
          0.064593301435 0 0 0.070588235294 0.15523465704 0.16506410256
          0.12283464567 0.11271676301 0.16506410256 0.15523465704 0.070588235294 0
          0 0.081896551724 0.19333333333 0.25443786982 0.33959537572 0.38985313752
          0.25443786982 0.19333333333 0.081896551724 0 0 0.093301435407
          0.24768946396 0.35573770492 0.41987179487 0.46449704142 0.35573770492 0.24768946396
          0.093301435407 0 0 0.10781671159 0.30833333333 0.39556377079
          0.4440433213 0.48666666667 0.39556377079 0.30833333333 0.10781671159 0
          0 0.16197183099 0.35579514825 0.43062200957 0.44470588235 0.49137931034
          0.43062200957 0.35579514825 0.16197183099 0 0 0.16101694915
          0.3538961039 0.42939481268 0.4447592068 0.49090909091 0.42939481268 0.3538961039
          0.16101694915 0 0 0 0 0
          0 0 0 0 0 0
          0 0.027906976744 0 0 0 0
          0 0 0.027906976744 0 0 0.056338028169
          0.072776280323 0.040669856459 0.014117647059 0.012931034483 0.040669856459 0.072776280323
          0.056338028169 0 0 0.06875 0.11483253589 0.10828025478
          0.0375782881 0.034416826004 0.10828025478 0.11483253589 0.06875 0
          0 0.074303405573 0.16235294118 0.16910229645 0.12371134021 0.11257035647
          0.16910229645 0.16235294118 0.074303405573 0 0 0.084269662921
          0.20043103448 0.25812619503 0.33771106942 0.39242685026 0.25812619503 0.20043103448
          0.084269662921 0 0 0.09375 0.25358851675 0.36093418259
          0.41962421712 0.46845124283 0.36093418259 0.25358851675 0.09375 0
          0 0.10563380282 0.3153638814 0.4019138756 0.44470588235 0.49137931034
          0.4019138756 0.3153638814 0.10563380282 0 0 0.16744186047
          0.36971830986 0.440625 0.44582043344 0.49719101124 0.440625 0.36971830986
          0.16744186047 0 0 0.16759776536 0.3686440678 0.43984962406
          0.44609665428 0.49662162162 0.43984962406 0.3686440678 0.16759776536 0
          0 0 0 0 0 0
          0 0 0 0 0 0.027932960894
          0 0 0 0 0 0
          0.027932960894 0 0 0.055084745763 0.071428571429 0.040345821326
          0.014164305949 0.012987012987 0.040345821326 0.071428571429 0.055084745763 0
          0 0.067669172932 0.11239193084 0.1074168798 0.037688442211 0.034562211982
          0.1074168798 0.11239193084 0.067669172932 0 0 0.074349442379
          0.16147308782 0.16834170854 0.12376237624 0.11286681716 0.16834170854 0.16147308782
          0.074349442379 0 0 0.084459459459 0.2 0.25806451613
          0.33860045147 0.39211618257 0.25806451613 0.2 0.084459459459 0
          0 0.093984962406 0.25360230548 0.36061381074 0.41959798995 0.46774193548
          0.36061381074 0.25360230548 0.093984962406 0 0 0.10593220339
          0.31493506494 0.40057636888 0.4447592068 0.49090909091 0.40057636888 0.31493506494
          0.10593220339 0 0 0.16759776536 0.3686440678 0.43984962406
          0.44609665428 0.49662162162 0.43984962406 0.3686440678 0.16759776536 0
          0 0.1677852349 0.36734693878 0.43891402715 0.44642857143 0.49593495935
          0.43891402715 0.36734693878 0.1677852349 0
        </DataArray>
        <DataArray type="Float64" Name="Displacement" NumberOfComponents="3" format="ascii" RangeMin="1.0059476928" RangeMax="1.0297476544">
          -0.015381831375 1.0213554227 -0.031183019131 -0.011779320846 1.0138768302 -0.026819391851
          -0.011704135703 1.0125323547 -0.026345624462 -0.011557306956 1.0142895821 -0.028880316078
          -0.011503634419 1.013522342 -0.028477027277 -0.011582233943 1.0119039698 -0.027997943041
          -0.011549089664 1.012526141 -0.028811017907 -0.011379321061 1.0095963449 -0.026294222707
          -0.011215348405 1.0099102269 -0.026892682619 -0.0076000347614 1.0164423278 -0.030863168867
          -0.011329701545 1.0161158638 -0.028867167937 -0.010565139105 1.0170491298 -0.030459633888
          -0.01022200672 1.0140489437 -0.02907540437 -0.010996740027 1.0137853636 -0.028935732047
          -0.011091456124 1.0133978138 -0.029053648275 -0.011068016617 1.0130395295 -0.029157862275
          -0.011014491578 1.0122516413 -0.029068889564 -0.011744412494 1.0108014915 -0.028667111191
          -0.011362701669 1.0129301032 -0.030360494532 -0.010678661286 1.0110015257 -0.028999213764
          -0.008525189649 1.0159162604 -0.032097851355 -0.0089281907954 1.0161917749 -0.031532395781
          -0.01028706147 1.0154859867 -0.030362885245 -0.010192670943 1.0140722823 -0.030234276657
          -0.010452846158 1.0128292366 -0.029524032771 -0.010133298386 1.0121003259 -0.029595546151
          -0.010623971673 1.0123560357 -0.030162543988 -0.010470561827 1.0126658838 -0.030363246913
          -0.011987931978 1.0122399589 -0.031500750704 -0.012003940009 1.0108474948 -0.031739257269
          -0.0089775105484 1.016489156 -0.031479736359 -0.0092691900827 1.0154051372 -0.032374640305
          -0.0098016887511 1.0151259161 -0.031294882126 -0.0099596524166 1.0142593267 -0.03088304788
          -0.0098127044981 1.0138324723 -0.031415498743 -0.0098278484782 1.0133132887 -0.030980517893
          -0.0095321439951 1.0124405964 -0.03090695943 -0.0098579972831 1.0122775911 -0.031335994046
          -0.010399886483 1.0115111967 -0.032380241827 -0.01051024911 1.0113340101 -0.031231186777
          -0.0098675812346 1.0160347207 -0.030984249244 -0.0086264913069 1.0157570323 -0.032428087963
          -0.0086372221468 1.0155720788 -0.032136897765 -0.0090091630463 1.014492462 -0.031983123592
          -0.0095899245956 1.0132795069 -0.032743812234 -0.0093565679506 1.0134372614 -0.032168614615
          -0.0093451757458 1.0126916787 -0.032003272305 -0.0098878494558 1.0127141814 -0.032112316906
          -0.0099274124366 1.0119815475 -0.032377360083 -0.0085880758128 1.0109933263 -0.030873914687
          -0.0084558156417 1.0173251176 -0.031955874591 -0.0078696885714 1.0164844555 -0.033567545044
          -0.0077427654659 1.0153894828 -0.033140996863 -0.0075685039034 1.0145739005 -0.033705201538
          -0.0084754732734 1.0137551682 -0.03373751555 -0.0085679530851 1.013239629 -0.033739234753
          -0.0099550861651 1.0128311992 -0.033623201057 -0.009657926315 1.012565685 -0.033147029842
          -0.0095347852909 1.0124732846 -0.033564961369 -0.0089272311416 1.0122846675 -0.031830911206
          -0.0067491333211 1.0166479549 -0.034294085801 -0.0082922747243 1.0155426506 -0.034100940062
          -0.006808875894 1.0159778166 -0.0330061625 -0.0080434986463 1.0151173477 -0.034032982893
          -0.0070697564999 1.0140729721 -0.03250856212 -0.0090725818274 1.0135249377 -0.032625564391
          -0.008213726485 1.0132201379 -0.033969505832 -0.0094771127358 1.0131387777 -0.032969036792
          -0.0080328205421 1.0115371077 -0.034043229882 -0.0095294799637 1.0115108603 -0.034249708046
          -0.0076613941562 1.0155025825 -0.03522308625 -0.0083025124411 1.0159721941 -0.033301814216
          -0.0081111839947 1.0152957393 -0.034662620246 -0.0050622375425 1.0149050848 -0.033569685826
          -0.0082672817808 1.0150820734 -0.034313801204 -0.0068408983856 1.014542539 -0.034254956353
          -0.0099368968769 1.0132647781 -0.033527904358 -0.0069559515876 1.0124610833 -0.034585739529
          -0.0069577666367 1.0119596692 -0.03333016211 -0.007451433261 1.0104075473 -0.035196607606
          -0.0053113357557 1.0152956056 -0.037373441048 -0.0047957686529 1.0185656323 -0.034273770114
          -0.007685869771 1.015065836 -0.034432614215 -0.0029403841274 1.0156694515 -0.033012064059
          -0.0040392693981 1.0106428637 -0.035162020886 -0.010093219812 1.010087715 -0.034994608698
          -0.010883928158 1.0139508032 -0.032826564488 -0.0062776420196 1.0122686415 -0.034291025844
          -0.0093690994969 1.0145767144 -0.034337890031 -0.00869378448 1.0103358309 -0.037231410845
          -0.011676516788 1.0102609353 -0.03723656575 -0.0066516630442 1.0141796565 -0.035842322633
          -0.0051087394267 1.0167500788 -0.035316037493 -0.0044356496551 1.0213343174 -0.028860751783
          -0.0122453027 1.0142464995 -0.043317284487 -0.0007779107932 1.0135656065 -0.043200777313
          -0.0083539597649 1.0198347934 -0.028602120345 -0.0078638375298 1.0139706512 -0.035263584588
          -0.0062004449368 1.0100470376 -0.035924024721 -0.0014244803625 1.0052578273 -0.037221393247
          -0.013617035694 1.019852084 -0.027600289476 -0.011307427158 1.0155027707 -0.027175629628
          -0.011776436067 1.0158924458 -0.028088325489 -0.011403679649 1.0147799381 -0.027402384411
          -0.011831631204 1.0140063694 -0.027330332739 -0.011584125096 1.0135101869 -0.027449394194
          -0.011701702573 1.0132137846 -0.027558832636 -0.011346189695 1.0128113669 -0.027714161827
          -0.011744791791 1.0114354252 -0.027001356523 -0.0094996586851 1.0147220253 -0.027465956053
          -0.010040053388 1.0182190697 -0.031840919115 -0.011139998041 1.0167632275 -0.030022546463
          -0.011844320394 1.0164650072 -0.029156430987 -0.011215199734 1.0150956455 -0.029224028632
          -0.011046388437 1.0145392396 -0.02940428358 -0.010938143222 1.0136694034 -0.029030352557
          -0.010677751802 1.0134815171 -0.029264924469 -0.010034594949 1.0136496525 -0.029152007753
          -0.010852446019 1.0127959997 -0.029957877381 -0.012001985946 1.0132586369 -0.03196694393
          -0.010399187174 1.0177120523 -0.030852105404 -0.010186407295 1.0170657961 -0.031020615779
          -0.010272887621 1.0160359566 -0.030468978432 -0.010363965219 1.0153916733 -0.030491428539
          -0.010363426662 1.0146254753 -0.030313507764 -0.010344895231 1.0139998817 -0.03020740342
          -0.010450580573 1.0136977753 -0.030555962168 -0.0104314605 1.0131040053 -0.03028609919
          -0.010702355231 1.0130784861 -0.030956322638 -0.010342862476 1.0126062693 -0.030791765075
          -0.0095669028483 1.0164999383 -0.031509631831 -0.0097017086251 1.0165463072 -0.031483517167
          -0.0094973996015 1.0161309708 -0.031641769556 -0.0099842336418 1.0150045045 -0.0308444091
          -0.0098280992567 1.014639504 -0.031277973461 -0.0098108048714 1.0140527399 -0.031224747209
          -0.0097134179315 1.0132725501 -0.030829815817 -0.010185177625 1.013241993 -0.031578158052
          -0.0099790586703 1.0125950832 -0.031437953145 -0.01015341077 1.0113514883 -0.031381026911
          -0.0092374935769 1.0175051686 -0.032246448944 -0.0092482777366 1.0165119006 -0.032232943619
          -0.0089475281917 1.0159869485 -0.032480806471 -0.0090457500999 1.0154469279 -0.032149035083
          -0.0093804628848 1.0143989104 -0.032359477596 -0.0091802004325 1.0138815883 -0.032174739596
          -0.0095012591218 1.0137252255 -0.032014908531 -0.00957563077 1.0131599915 -0.032436642532
          -0.0092396727649 1.0125345798 -0.032231919641 -0.0092757636338 1.0123570264 -0.03215297575
          -0.0086676866274 1.0172998107 -0.032365935694 -0.0085901450584 1.0165449707 -0.032954468014
          -0.0081532992425 1.0160602692 -0.033157089394 -0.0083421585104 1.0153835168 -0.033265279201
          -0.0080841352997 1.0148180472 -0.032834515928 -0.0092635574377 1.0142278876 -0.032769516412
          -0.009010225998 1.0136015734 -0.033381619699 -0.0092666822819 1.013222279 -0.033060289155
          -0.0088319781704 1.0125501065 -0.032816918759 -0.0087025265176 1.0122346872 -0.032272106082
          -0.0080617520139 1.0166304452 -0.033975997229 -0.0077709236476 1.0164917182 -0.033599465261
          -0.0072301126873 1.0160381373 -0.033862107815 -0.0065006656953 1.0156152309 -0.033003873629
          -0.0078140334062 1.0145536603 -0.033818006701 -0.0085325815343 1.0140964773 -0.03391348675
          -0.0097131975704 1.0139424813 -0.032932575373 -0.0090355031619 1.0131956374 -0.03375646976
          -0.0085179576581 1.0125317788 -0.03351791812 -0.0082052000714 1.0114833338 -0.033966631441
          -0.0066494304118 1.0167694959 -0.035580449128 -0.0072622946351 1.015733919 -0.035472750507
          -0.0058130881955 1.0160901992 -0.034481242395 -0.0068859429858 1.0160124396 -0.033800223766
          -0.005657281474 1.0143337201 -0.033296195299 -0.00955084458 1.0136981011 -0.033270886921
          -0.0082580294386 1.0143094481 -0.033821023978 -0.0093730053627 1.0132994913 -0.034506869451
          -0.0079047769894 1.0117602016 -0.035479337306 -0.008570709893 1.0116627318 -0.035551508306
          -0.006301447958 1.0174693551 -0.035550310002 -0.0071973255076 1.0155470938 -0.034915832932
          -0.0060173691575 1.0150284644 -0.035550212155 -0.0064880579216 1.0151103989 -0.035527864933
          -0.0072833083307 1.0151789851 -0.035191419318 -0.0066906735702 1.0145976567 -0.035144486961
          -0.0075662859821 1.0133728259 -0.035426502028 -0.0079996693427 1.0122046644 -0.035438676128
          -0.0067816213164 1.0115841426 -0.034810057364 -0.0075701777469 1.0122249237 -0.035482403679
          -0.0061508808419 1.0148171162 -0.036915843306 -0.0014902429811 1.0181690369 -0.035924734145
          -0.0065234172438 1.0156659798 -0.036302208753 -0.0032435790836 1.0153083298 -0.034450786628
          -0.0044092597083 1.0121457168 -0.03648502781 -0.008325117223 1.0116244834 -0.036387908881
          -0.0095628200908 1.0135106072 -0.034605025108 -0.0061953696037 1.0126289951 -0.036302530435
          -0.011327994277 1.0144353841 -0.035636217861 -0.0068345438024 1.0098373266 -0.036832981968
          -0.013874392007 1.0202845782 -0.028805914344 -0.011516905413 1.0173443313 -0.028824419565
          -0.011852361029 1.0170353483 -0.028470852546 -0.011425108689 1.0155561484 -0.027917983384
          -0.011705954635 1.0157975104 -0.028871058369 -0.011575254017 1.0150001531 -0.028572759457
          -0.011781738921 1.0137589074 -0.027843341473 -0.01125531554 1.0141552505 -0.028418446656
          -0.011557286239 1.0133428628 -0.028805295223 -0.009152828169 1.0151711792 -0.028697585239
          -0.010815780563 1.0176483829 -0.029811150288 -0.011229761643 1.0173327403 -0.029314170525
          -0.011216011288 1.0176384575 -0.030095205285 -0.011040762663 1.0161101774 -0.029473442287
          -0.011006363046 1.0158028483 -0.029621683817 -0.010958165949 1.0151194114 -0.029555343231
          -0.010909321032 1.0144854517 -0.029490778099 -0.010778099634 1.0147464357 -0.030012270426
          -0.010715562309 1.0133480548 -0.029193495208 -0.011238628385 1.012478798 -0.029697744772
          -0.010100206596 1.0183335346 -0.03107698202 -0.010468867458 1.0177353196 -0.030562625939
          -0.010595874219 1.0169570416 -0.030295865631 -0.010418258914 1.0161975714 -0.030379460056
          -0.010448859767 1.0156217197 -0.030411643487 -0.010382670343 1.0150538042 -0.030343205511
          -0.010373122943 1.0144731608 -0.030372165552 -0.010267577696 1.0140910008 -0.030281293029
          -0.010319951412 1.0137813974 -0.030520403828 -0.010737932452 1.0131475441 -0.030980314792
          -0.0097389899631 1.0184191367 -0.031596038131 -0.0099082160677 1.0176464077 -0.031344939028
          -0.0099422890738 1.0168949046 -0.031232558014 -0.0098304684807 1.016217697 -0.031198051018
          -0.0099162102116 1.0155090793 -0.031273741744 -0.009899070105 1.0150002261 -0.031270549629
          -0.0098577994232 1.0144943495 -0.031149180582 -0.0097604379397 1.0140424044 -0.031175037591
          -0.0097392274915 1.0136384378 -0.0312562607 -0.009995164267 1.0132812487 -0.031507422246
          -0.0086598154736 1.0181765442 -0.032650455794 -0.0093209222984 1.0176351677 -0.031986036437
          -0.0091071003009 1.0169639716 -0.032207349996 -0.0090980217878 1.0162046996 -0.032115271845
          -0.0091909750327 1.0156010183 -0.032138022455 -0.009309946173 1.0150180194 -0.0321564937
          -0.0094554152725 1.0144761634 -0.032071718829 -0.0094743499901 1.0141190881 -0.032168019491
          -0.0092249401559 1.0136443675 -0.031924045826 -0.0099003442847 1.0130645305 -0.032506609045
          -0.0078564174175 1.0183439825 -0.033328815463 -0.0082027743469 1.017477517 -0.033023189625
          -0.0084206757316 1.0168850179 -0.032956439499 -0.008505098795 1.0162225763 -0.032912052761
          -0.0089183935535 1.0155088536 -0.033179780094 -0.0084405202535 1.0149157216 -0.033157184414
          -0.0088287526697 1.0145641684 -0.032929852295 -0.008971908281 1.0140328737 -0.032885480222
          -0.0091864983472 1.0134908676 -0.032941256936 -0.0096268969127 1.0133122766 -0.03327121042
          -0.0082977822368 1.0182664879 -0.03298047784 -0.0084202086745 1.0172035668 -0.033510528085
          -0.0079271566986 1.0167866609 -0.033718959725 -0.0083766852784 1.0163445963 -0.033588591742
          -0.0073275343777 1.0156006738 -0.033252292383 -0.0088445981931 1.015086727 -0.033310618632
          -0.0079595446774 1.0145858188 -0.033617513951 -0.0083617307398 1.0139326472 -0.033671795697
          -0.0078567205307 1.0132476504 -0.033412116796 -0.0080312093296 1.0131755109 -0.032902249652
          -0.0068760239615 1.0176928201 -0.035197553622 -0.0079489717254 1.0167475416 -0.034634029034
          -0.0067482359342 1.0169267659 -0.034472305684 -0.0070720253567 1.0160695349 -0.034409597871
          -0.0069811028188 1.0158721814 -0.034033454158 -0.0081397233392 1.0150522129 -0.03419933133
          -0.0080191893153 1.0144087556 -0.034354233702 -0.0083435256077 1.0140587908 -0.034423210912
          -0.0072549320977 1.0127702284 -0.034520888236 -0.0082914949926 1.0125193941 -0.035165749762
          -0.0072207657248 1.0166945884 -0.03527077713 -0.0068210775776 1.0169512989 -0.035137203057
          -0.0059953418782 1.0170297865 -0.035271798269 -0.0064745237605 1.0165235163 -0.034901570686
          -0.0063437903443 1.0159878002 -0.034136874951 -0.0077057871578 1.0154144433 -0.03410043371
          -0.007537042726 1.0147859501 -0.034889011507 -0.0079835992165 1.0141789926 -0.035212962616
          -0.0071711563165 1.0129847358 -0.035025764175 -0.0066295432013 1.0113799986 -0.035174610953
          -0.0094929327137 1.0135618037 -0.037593929223 -0.0046422084814 1.0181317935 -0.035245218598
          -0.0084820845499 1.0187792821 -0.034276385796 -0.005163244696 1.0168275381 -0.033786195496
          -0.009512621536 1.0194831556 -0.035505480927 -0.0031156486206 1.018970003 -0.035486679585
          -0.0075820162092 1.0151225545 -0.033777311034 -0.0043144547116 1.0158412676 -0.034265458544
          -0.0080867235827 1.0141212846 -0.035171484589 -0.0033901587208 1.0084618178 -0.037463512912
          -0.013654632211 1.0212094556 -0.029235023962 -0.011297123697 1.0181033863 -0.028683867544
          -0.011776374684 1.0180721776 -0.029405251385 -0.011530016033 1.0167805855 -0.028503723632
          -0.011641532424 1.0165167593 -0.028996481468 -0.011669045672 1.0160866386 -0.029041561241
          -0.011635594026 1.0148761619 -0.028270180473 -0.011312224653 1.0153002689 -0.029355274879
          -0.011933436333 1.0140597746 -0.028639462183 -0.0094770726155 1.0159969493 -0.02914580361
          -0.010688879145 1.0186867558 -0.030177367811 -0.011018250011 1.0183472602 -0.029770191506
          -0.011127254967 1.0178253058 -0.029665447438 -0.011013680258 1.0169253698 -0.029606772433
          -0.011002153832 1.0164664529 -0.02955291635 -0.010975632613 1.0158819111 -0.029584866312
          -0.011029321554 1.0150844467 -0.029557035037 -0.010869018008 1.0149495658 -0.029673406835
          -0.010918875687 1.0143963168 -0.029733962287 -0.011438780575 1.0134980758 -0.030085173389
          -0.0098149291342 1.0182880417 -0.030732853728 -0.010526233536 1.0184967459 -0.030533666479
          -0.010504052907 1.0177961318 -0.030420967443 -0.010499955741 1.0170582442 -0.030375208871
          -0.010428294041 1.0164192375 -0.030469055115 -0.010446415671 1.0158570962 -0.030444517636
          -0.010324935801 1.0153203518 -0.030381455445 -0.010361100751 1.0149533271 -0.030361167508
          -0.010323840363 1.0145143407 -0.030488005013 -0.011011465605 1.0131694633 -0.030621682771
          -0.0099031427733 1.0192398318 -0.031189651744 -0.0096735514387 1.0183445447 -0.031280525393
          -0.0098473039159 1.0177488627 -0.031230517475 -0.0098205902644 1.0170941522 -0.03117623813
          -0.0098382085288 1.0163431238 -0.031243362427 -0.0098353954224 1.0156722135 -0.031213384801
          -0.0098724817973 1.0153432166 -0.031190676539 -0.0098513326775 1.0148958771 -0.031172288226
          -0.0099840432924 1.0143628181 -0.03116586773 -0.0097954299351 1.014104517 -0.031105293248
          -0.0090873710018 1.018918328 -0.03199570503 -0.0089998907489 1.0183066022 -0.03209618215
          -0.0089761617471 1.0177455957 -0.032043846008 -0.009125392926 1.0169696266 -0.032160982978
          -0.009185600305 1.0163637176 -0.032027374794 -0.0093371289444 1.0157858536 -0.032088259065
          -0.009396958935 1.0152913527 -0.03212342725 -0.0095723876902 1.014856853 -0.031982912817
          -0.0095678334621 1.0143014247 -0.03200962677 -0.0094697861774 1.0137587036 -0.031915617239
          -0.0085212563686 1.0187937752 -0.032767181763 -0.0086340499594 1.0182590441 -0.032819248751