<?xml version="1.0"?>
<VTKFile type="UnstructuredGrid" version="0.1" byte_order="LittleEndian" compressor="vtkZLibDataCompressor">
  <UnstructuredGrid>
    <FieldData>
      <DataArray type="Float64" Name="TIME" NumberOfTuples="1" format="ascii" RangeMin="0.27984440216" RangeMax="0.27984440216">
        0.27984440216
      </DataArray>
    </FieldData>
    <Piece NumberOfPoints="1000" NumberOfCells="0">
      <PointData>
        <DataArray type="Float64" Name="Damage" format="ascii" RangeMin="0" RangeMax="0.49719101124">
          0 0 0 0 0 0
          0 0 0 0 0 0.027932960894
          0 0 0 0 0 0
          0.027932960894 0 0 0.055084745763 0.071428571429 0.040345821326
          0.014164305949 0.012987012987 0.040345821326 0.071428571429 0.055084745763 0
          0 0.067669172932 0.11239193084 0.1074168798 0.037688442211 0.034562211982
          0.1074168798 0.11239193084 0.067669172932 0 0 0.074349442379
          0.16147308782 0.16834170854 0.12376237624 0.11286681716 0.16834170854 0.16147308782
          0.074349442379 0 0 0.084459459459 0.2 0.25806451613
          0.33860045147 0.39211618257 0.25806451613 0.2 0.084459459459 0
          0 0.093984962406 0.25360230548 0.36061381074 0.41959798995 0.46774193548
          0.36061381074 0.25360230548 0.093984962406 0 0 0.10593220339
          0.31493506494 0.40057636888 0.4447592068 0.49090909091 0.40057636888 0.31493506494
          0.10593220339 0 0 0.16759776536 0.3686440678 0.43984962406
          0.44609665428 0.49662162162 0.43984962406 0.3686440678 0.16759776536 0
          0 0.1677852349 0.36734693878 0.43891402715 0.44642857143 0.49593495935
          0.43891402715 0.36734693878 0.1677852349 0 0 0
          0 0 0 0 0 0
          0 0 0 0.027906976744 0 0
          0 0 0 0 0.027906976744 0
          0 0.056338028169 0.072776280323 0.040669856459 0.014117647059 0.012931034483
          0.040669856459 0.072776280323 0.056338028169 0 0 0.06875
          0.11483253589 0.10828025478 0.0375782881 0.034416826004 0.10828025478 0.11483253589
          0.06875 0 0 0.074303405573 0.16235294118 0.16910229645
          0.12371134021 0.11257035647 0.16910229645 0.16235294118 0.074303405573 0
          0 0.084269662921 0.20043103448 0.25812619503 0.33771106942 0.39242685026
          0.25812619503 0.20043103448 0.084269662921 0 0 0.09375
          0.25358851675 0.36093418259 0.41962421712 0.46845124283 0.36093418259 0.25358851675
          0.09375 0 0 0.10563380282 0.3153638814 0.4019138756
          0.44470588235 0.49137931034 0.4019138756 0.3153638814 0.10563380282 0
          0 0.16744186047 0.36971830986 0.440625 0.44582043344 0.49719101124
          0.440625 0.36971830986 0.16744186047 0 0 0.16759776536
          0.3686440678 0.43984962406 0.44609665428 0.49662162162 0.43984962406 0.3686440678
          0.16759776536 0 0 0 0 0
          0 0 0 0 0 0
          0 0.024647887324 0 0 0 0
          0 0 0.024647887324 0 0 0.051212938005
          0.06875 0.038817005545 0.012635379061 0.011666666667 0.038817005545 0.06875
          0.051212938005 0 0 0.064593301435 0.10905730129 0.10491803279
          0.036858974359 0.034023668639 0.10491803279 0.10905730129 0.064593301435 0
          0 0.070588235294 0.15523465704 0.16506410256 0.12283464567 0.11271676301
          0.16506410256 0.15523465704 0.070588235294 0 0 0.081896551724
          0.19333333333 0.25443786982 0.33959537572 0.38985313752 0.25443786982 0.19333333333
          0.081896551724 0 0 0.093301435407 0.24768946396 0.35573770492
          0.41987179487 0.46449704142 0.35573770492 0.24768946396 0.093301435407 0
          0 0.10781671159 0.30833333333 0.39556377079 0.4440433213 0.48666666667
          0.39556377079 0.30833333333 0.10781671159 0 0 0.16197183099
          0.35579514825 0.43062200957 0.44470588235 0.49137931034 0.43062200957 0.35579514825
          0.16197183099 0 0 0.16101694915 0.3538961039 0.42939481268
          0.4447592068 0.49090909091 0.42939481268 0.3538961039 0.16101694915 0
          0 0 0 0 0 0
          0 0 0 0 0 0.025
          0 0 0 0 0 0
          0.025 0 0 0.05023923445 0.068391866913 0.039344262295
          0.012820512821 0.011834319527 0.039344262295 0.068391866913 0.05023923445 0
          0 0.063694267516 0.10819672131 0.10465116279 0.036984352774 0.034120734908
          0.10465116279 0.10819672131 0.063694267516 0 0 0.070981210856
          0.15544871795 0.16500711238 0.12290502793 0.11282051282 0.16500711238 0.15544871795
          0.070981210856 0 0 0.082217973231 0.19378698225 0.25459317585
          0.33974358974 0.38981042654 0.25459317585 0.19378698225 0.082217973231 0
          0 0.093418259023 0.24918032787 0.35610465116 0.41963015647 0.46456692913
          0.35610465116 0.24918032787 0.093418259023 0 0 0.10765550239
          0.30868761553 0.39508196721 0.44391025641 0.48668639053 0.39508196721 0.30868761553
          0.10765550239 0 0 0.1625 0.35645933014 0.43099787686
          0.44467640919 0.4913957935 0.43099787686 0.35645933014 0.1625 0
          0 0.16165413534 0.35446685879 0.42966751918 0.44472361809 0.49078341014
          0.42966751918 0.35446685879 0.16165413534 0 0 0
          0 0 0 0 0 0
          0 0 0 0.02786377709 0 0
          0 0 0 0 0.02786377709 0
          0 0.054117647059 0.070397111913 0.040064102564 0.014173228346 0.013005780347
          0.040064102564 0.070397111913 0.054117647059 0 0 0.066805845511
          0.11057692308 0.106685633 0.037709497207 0.034615384615 0.106685633 0.11057692308
          0.066805845511 0 0 0.074226804124 0.16062992126 0.16759776536
          0.12362637363 0.11292346299 0.16759776536 0.16062992126 0.074226804124 0
          0 0.084427767355 0.19942196532 0.25769230769 0.33877038896 0.39145496536
          0.25769230769 0.19942196532 0.084427767355 0 0 0.093945720251
          0.25320512821 0.35988620199 0.41899441341 0.46666666667 0.35988620199 0.25320512821
          0.093945720251 0 0 0.10588235294 0.31407942238 0.39903846154
          0.44409448819 0.48988439306 0.39903846154 0.31407942238 0.10588235294 0
          0 0.16718266254 0.36705882353 0.43841336117 0.44536082474 0.49530956848
          0.43841336117 0.36705882353 0.16718266254 0 0 0.16728624535
          0.36543909348 0.43718592965 0.44554455446 0.49435665914 0.43718592965 0.36543909348
          0.16728624535 0 0 0 0 0
          0 0 0 0 0 0
          0 0.025280898876 0 0 0 0
          0 0 0.025280898876 0 0 0.049568965517
          0.066666666667 0.038461538462 0.013005780347 0.012016021362 0.038461538462 0.066666666667
          0.049568965517 0 0 0.06309751434 0.1050295858 0.10367454068
          0.037179487179 0.034360189573 0.10367454068 0.1050295858 0.06309751434 0
          0 0.071294559099 0.15462427746 0.1641025641 0.12296110414 0.11316397229
          0.1641025641 0.15462427746 0.071294559099 0 0 0.082616179002
          0.19359145527 0.25473933649 0.34064665127 0.38930481283 0.25473933649 0.19359145527
          0.082616179002 0 0 0.093690248566 0.24852071006 0.35564304462
          0.41923076923 0.46327014218 0.35564304462 0.24852071006 0.093690248566 0
          0 0.10775862069 0.30833333333 0.39349112426 0.4436416185 0.48598130841
          0.39349112426 0.30833333333 0.10775862069 0 0 0.16292134831
          0.35560344828 0.43021032505 0.44465290807 0.49053356282 0.43021032505 0.35560344828
          0.16292134831 0 0 0.16216216216 0.35324675325 0.42857142857
          0.44469525959 0.48962655602 0.42857142857 0.35324675325 0.16216216216 0
          0 0 0 0 0 0
          0 0 0 0 0 0.025
          0 0 0 0 0 0
          0.025 0 0 0.05023923445 0.068391866913 0.039344262295
          0.012820512821 0.011834319527 0.039344262295 0.068391866913 0.05023923445 0
          0 0.063694267516 0.10819672131 0.10465116279 0.036984352774 0.034120734908
          0.10465116279 0.10819672131 0.063694267516 0 0 0.070981210856
          0.15544871795 0.16500711238 0.12290502793 0.11282051282 0.16500711238 0.15544871795
          0.070981210856 0 0 0.082217973231 0.19378698225 0.25459317585
          0.33974358974 0.38981042654 0.25459317585 0.19378698225 0.082217973231 0
          0 0.093418259023 0.24918032787 0.35610465116 0.41963015647 0.46456692913
          0.35610465116 0.24918032787 0.093418259023 0 0 0.10765550239
          0.30868761553 0.39508196721 0.44391025641 0.48668639053 0.39508196721 0.30868761553
          0.10765550239 0 0 0.1625 0.35645933014 0.43099787686
          0.44467640919 0.4913957935 0.43099787686 0.35645933014 0.1625 0
          0 0.16165413534 0.35446685879 0.42966751918 0.44472361809 0.49078341014
          0.42966751918 0.35446685879 0.16165413534 0 0 0
          0 0 0 0 0 0
          0 0 0 0.024647887324 0 0
          0 0 0 0 0.024647887324 0
          0 0.051212938005 0.06875 0.038817005545 0.012635379061 0.011666666667
          0.038817005545 0.06875 0.051212938005 0 0 0.064593301435
          0.10905730129 0.10491803279 0.036858974359 0.034023668639 0.10491803279 0.10905730129
          0.064593301435 0 0 0.070588235294 0.15523465704 0.16506410256
          0.12283464567 0.11271676301 0.16506410256 0.15523465704 0.070588235294 0
          0 0.081896551724 0.19333333333 0.25443786982 0.33959537572 0.38985313752
          0.25443786982 0.19333333333 0.081896551724 0 0 0.093301435407
          0.24768946396 0.35573770492 0.41987179487 0.46449704142 0.35573770492 0.24768946396
          0.093301435407 0 0 0.10781671159 0.30833333333 0.39556377079
          0.4440433213 0.48666666667 0.39556377079 0.30833333333 0.10781671159 0
          0 0.16197183099 0.35579514825 0.43062200957 0.44470588235 0.49137931034
          0.43062200957 0.35579514825 0.16197183099 0 0 0.16101694915
          0.3538961039 0.42939481268 0.4447592068 0.49090909091 0.42939481268 0.3538961039
          0.16101694915 0 0 0 0 0
          0 0 0 0 0 0
          0 0.027906976744 0 0 0 0
          0 0 0.027906976744 0 0 0.056338028169
          0.072776280323 0.040669856459 0.014117647059 0.012931034483 0.040669856459 0.072776280323
          0.056338028169 0 0 0.06875 0.11483253589 0.10828025478
          0.0375782881 0.034416826004 0.10828025478 0.11483253589 0.06875 0
          0 0.074303405573 0.16235294118 0.16910229645 0.12371134021 0.11257035647
          0.16910229645 0.16235294118 0.074303405573 0 0 0.084269662921
          0.20043103448 0.25812619503 0.33771106942 0.39242685026 0.25812619503 0.20043103448
          0.084269662921 0 0 0.09375 0.25358851675 0.36093418259
          0.41962421712 0.46845124283 0.36093418259 0.25358851675 0.09375 0
          0 0.10563380282 0.3153638814 0.4019138756 0.44470588235 0.49137931034
          0.4019138756 0.3153638814 0.10563380282 0 0 0.16744186047
          0.36971830986 0.440625 0.44582043344 0.49719101124 0.440625 0.36971830986
          0.16744186047 0 0 0.16759776536 0.3686440678 0.43984962406
          0.44609665428 0.49662162162 0.43984962406 0.3686440678 0.16759776536 0
          0 0 0 0 0 0
          0 0 0 0 0 0.027932960894
          0 0 0 0 0 0
          0.027932960894 0 0 0.055084745763 0.071428571429 0.040345821326
          0.014164305949 0.012987012987 0.040345821326 0.071428571429 0.055084745763 0
          0 0.067669172932 0.11239193084 0.1074168798 0.037688442211 0.034562211982
          0.1074168798 0.11239193084 0.067669172932 0 0 0.074349442379
          0.16147308782 0.16834170854 0.12376237624 0.11286681716 0.16834170854 0.16147308782
          0.074349442379 0 0 0.084459459459 0.2 0.25806451613
          0.33860045147 0.39211618257 0.25806451613 0.2 0.084459459459 0
          0 0.093984962406 0.25360230548 0.36061381074 0.41959798995 0.46774193548
          0.36061381074 0.25360230548 0.093984962406 0 0 0.10593220339
          0.31493506494 0.40057636888 0.4447592068 0.49090909091 0.40057636888 0.31493506494
          0.10593220339 0 0 0.16759776536 0.3686440678 0.43984962406
          0.44609665428 0.49662162162 0.43984962406 0.3686440678 0.16759776536 0
          0 0.1677852349 0.36734693878 0.43891402715 0.44642857143 0.49593495935
          0.43891402715 0.36734693878 0.1677852349 0
        </DataArray>
        <DataArray type="Float64" Name="Displacement" NumberOfComponents="3" format="ascii" RangeMin="1.3066185454" RangeMax="1.3238252938">
          -0.0056430239992 1.311135904 -0.0194276408 -0.0081600357765 1.3159226363 -0.022420394058
          -0.0080426078538 1.3111722127 -0.018407647934 -0.008537123439 1.3118828438 -0.019963912627
          -0.0083740271314 1.311832451 -0.020391785424 -0.0082169158327 1.3119745363 -0.021308963958
          -0.0079564929759 1.3106301349 -0.019864765314 -0.0085516637337 1.30903344 -0.018399364532
          -0.0083018457851 1.3129037728 -0.022430215608 -0.011211512694 1.3074454689 -0.019328501492
          -0.0077587408634 1.3141777711 -0.020746667516 -0.0072056742189 1.313961017 -0.021855469381
          -0.0075048038295 1.3132016537 -0.021210377998 -0.0074277801163 1.312475437 -0.020930380329
          -0.007630298221 1.3120002646 -0.020469081283 -0.0076923717794 1.3115418735 -0.020747579076
          -0.0084213699487 1.3113238104 -0.021037632486 -0.008171921607 1.3110810052 -0.021172139404
          -0.00859994805 1.3109348493 -0.021850322057 -0.0079131845509 1.310266392 -0.020669528757
          -0.007487154558 1.3134565443 -0.021637213181 -0.0054286585826 1.3138371555 -0.023038858407
          -0.0077362616415 1.3135015062 -0.021182575678 -0.0071802239779 1.3128866622 -0.02167084833
          -0.0073317683768 1.3126790665 -0.021677085221 -0.0074419542173 1.3128833371 -0.022415948395
          -0.0075305850441 1.3117912444 -0.021635965879 -0.0071678092537 1.3113852674 -0.021155751102
          -0.0094113491129 1.3109459279 -0.022931762435 -0.0073027697288 1.3096651939 -0.021465665007
          -0.0071603935647 1.3139003875 -0.022232344324 -0.0066455040433 1.3135495925 -0.023593241942
          -0.0065669976784 1.3129778379 -0.022124293159 -0.0063816472163 1.3126883239 -0.02204695507
          -0.0071594720103 1.3124088785 -0.021812841695 -0.0070067843249 1.3120042327 -0.021732831953
          -0.0078044760913 1.3116790484 -0.022121998775 -0.007433574316 1.3110344485 -0.022117817978
          -0.0073936521074 1.3106857071 -0.023602745319 -0.0069040364939 1.310144303 -0.022197517447
          -0.0060093010089 1.3129538128 -0.023547654168 -0.0058789334735 1.3130328493 -0.023342607407
          -0.0057520587867 1.3132951898 -0.022961050797 -0.0060501678031 1.3130709606 -0.022563953969
          -0.0062370328223 1.3125126952 -0.022660678726 -0.0068487246655 1.3123627448 -0.022560861936
          -0.0071025299307 1.3117789745 -0.022553479356 -0.0074889500343 1.3113103572 -0.022932292179
          -0.0073582716788 1.3100543525 -0.023297233302 -0.0072149407027 1.3091186433 -0.023448781548
          -0.0057559857194 1.3146951018 -0.024077726992 -0.0058834737221 1.3135030545 -0.024330093431
          -0.0060551810979 1.3129853828 -0.023570272541 -0.0061439836701 1.3126847278 -0.023674216841
          -0.0035665471075 1.3135591311 -0.021724189765 -0.0088732935978 1.3129921753 -0.021778539116
          -0.0062205094201 1.3112382478 -0.023586179901 -0.0063146134372 1.3109864361 -0.023427892222
          -0.0064532026488 1.3105175279 -0.02430901866 -0.0065792274652 1.3109537693 -0.023976061428
          -0.0064463770992 1.3135585923 -0.024016088129 -0.0077380520166 1.3133665707 -0.023690586614
          -0.0063447451881 1.3132645032 -0.02384117213 -0.0064332177073 1.313162414 -0.023736446772
          -0.004211067509 1.3133827837 -0.022228743358 -0.0073004648265 1.3130910694 -0.022278701372
          -0.0051292105732 1.3118993776 -0.023654430547 -0.0051911733609 1.3111290626 -0.023732009504
          -0.0037368216044 1.3104621788 -0.023559941584 -0.0049874335717 1.3097806327 -0.023840963127
          -0.0057404384253 1.3120728284 -0.025610728012 -0.0076697506756 1.3132228342 -0.024029978294
          -0.0044757150687 1.3127763311 -0.024900215211 -0.0041820583489 1.31256593 -0.023954355669
          -0.0071878867229 1.3123485804 -0.025286112052 -0.0033970555728 1.3119205531 -0.025330505573
          -0.0064592462255 1.3113487141 -0.023950457319 -0.0062733106729 1.3107063934 -0.024899583283
          -0.0031568982227 1.3103403988 -0.024053355571 -0.0050119034843 1.3083184605 -0.025528200534
          -0.0032881115743 1.3122409007 -0.029479019007 -0.0061944170566 1.3149349133 -0.025098700443
          -0.0043030561633 1.3111709688 -0.026947481264 -0.0043395757654 1.3130984414 -0.025023045396
          -0.0038361901421 1.3132029522 -0.025303167706 -0.0060481357329 1.3127891527 -0.025070040655
          -0.0055541021196 1.3118448268 -0.024827091896 -0.005498266206 1.3090313426 -0.026870638848
          -0.0036566605897 1.3119837002 -0.025037561541 -0.0064639461549 1.3083567021 -0.029417274205
          -0.0048152947558 1.3176808979 -0.02424883772 -0.0097599809808 1.3171459523 -0.018404460054
          -0.0089168403025 1.3141784476 -0.02515735802 -0.005735383755 1.3090145264 -0.029659196892
          -0.014029209899 1.3114775435 -0.035349478835 0.0052061842997 1.3111094024 -0.035403418945
          -0.0032551912365 1.3077250308 -0.029691403583 0.00016287807279 1.3121214986 -0.0250422421
          0.0010151055707 1.3142622174 -0.018143767567 -0.0041871138248 1.3136097528 -0.024590086538
          -0.0077298049179 1.3140960845 -0.020117381473 -0.0085658117434 1.3133444248 -0.018823155533
          -0.0085183945446 1.3139003995 -0.020670259487 -0.0081178335673 1.3132146404 -0.020056118767
          -0.0082037740399 1.3125633248 -0.02008056383 -0.0081485137088 1.3123822023 -0.020174180749
          -0.0085523970488 1.3119777299 -0.020214138505 -0.0079722176035 1.3118089442 -0.0206602876
          -0.0080418934315 1.3103228611 -0.01870775137 -0.0087979266632 1.3103238038 -0.019920214276
          -0.0072434183762 1.3146182648 -0.022271318573 -0.0077251181304 1.3141507805 -0.020997218356
          -0.008085050172 1.3138502882 -0.02102369755 -0.0079337855637 1.3131979175 -0.020659316968
          -0.0078345929413 1.3124470456 -0.020418427634 -0.0078101049941 1.3118213982 -0.020290974081
          -0.007772691868 1.3119420473 -0.020650557257 -0.0077065366133 1.311703763 -0.020995164955
          -0.0079777953519 1.3112219768 -0.020906425043 -0.0085758553344 1.3108219321 -0.022280394687
          -0.0071439391413 1.314247876 -0.022094148474 -0.007387653859 1.3137507508 -0.021688164976
          -0.0070571772682 1.3135474364 -0.021672858626 -0.0072950934333 1.3131858978 -0.021455188758
          -0.0073498346482 1.3127566289 -0.021311091479 -0.0075173561306 1.3122581562 -0.021261549346
          -0.0076123613696 1.3119165325 -0.0214014451 -0.007796513949 1.3114509171 -0.021586483471
          -0.0075103652385 1.3108178028 -0.021616059568 -0.0077581027828 1.3105097854 -0.022036323068
          -0.0063237619546 1.3135392735 -0.023338349453 -0.0067171701669 1.3138455425 -0.022602964153
          -0.007048277526 1.3135828564 -0.022291817482 -0.0072918102657 1.312869298 -0.021368604712
          -0.007018323081 1.3128822027 -0.021925450644 -0.007061376835 1.3125061277 -0.022039632037
          -0.0068024746798 1.3115972951 -0.021295939019 -0.0070257316244 1.3114732399 -0.02225276835
          -0.0073590119886 1.3109438815 -0.022540272997 -0.0077656852208 1.3097706304 -0.023276171591
          -0.0060355331415 1.3147590411 -0.023667972685 -0.0064931766647 1.3138881535 -0.023063752592
          -0.0070030236634 1.3135305365 -0.022718189835 -0.0065796025413 1.3131940951 -0.023152359801
          -0.0067074327929 1.3128066227 -0.022771552071 -0.0065262993083 1.3123992492 -0.022726833721
          -0.0066356762295 1.311929098 -0.023099675394 -0.0061943252438 1.3114209902 -0.022686679319
          -0.0067272035923 1.3109896979 -0.023039864747 -0.0071543548343 1.3109011978 -0.023606211149
          -0.0057765725905 1.3135359024 -0.024952199054 -0.0067034954263 1.3135525669 -0.023684625392
          -0.005639471031 1.3136970464 -0.023927160926 -0.0063020125892 1.3132993262 -0.023495896794
          -0.0067163407529 1.3129739444 -0.023406787532 -0.0056315343642 1.3124820576 -0.02341318099
          -0.0061965820645 1.3120468017 -0.023498182361 -0.0067763490391 1.3116292042 -0.02386772798
          -0.0057133418808 1.3106280902 -0.023651372731 -0.0066139681194 1.3098186423 -0.024865320572
          -0.0070240080716 1.3133826199 -0.023798499864 -0.0066914520361 1.3133436299 -0.024087154225
          -0.0067548844796 1.313387857 -0.024177890867 -0.0047489974462 1.3135296927 -0.023126400737
          -0.0058011735745 1.3129350294 -0.023305705604 -0.0058192770854 1.3124438804 -0.023452486028
          -0.0067706748232 1.312278534 -0.023133569508 -0.0048065737775 1.31128304 -0.024118226332
          -0.0048827680073 1.3104353943 -0.024042078318 -0.0045624876985 1.3095904095 -0.023723468392
          -0.0057150766856 1.3137432672 -0.025301917263 -0.0066250500105 1.3130570539 -0.025493371688
          -0.005841733797 1.3137680552 -0.024759479454 -0.0058856407688 1.3134897324 -0.02441793011
          -0.0070669346455 1.3138636506 -0.024423087823 -0.0035539331692 1.3134356896 -0.024394363216
          -0.0047412417613 1.3122294296 -0.024361944169 -0.0048020788351 1.3116857663 -0.024677046971
          -0.0041034980914 1.3101255364 -0.025410130706 -0.0049171694765 1.3099886349 -0.025266320366
          -0.0045866568916 1.3149574323 -0.026538419778 -0.0051745617136 1.3144347029 -0.025390355194
          -0.0063126728485 1.3136053485 -0.025611210001 -0.0053021512208 1.3138853175 -0.02501072701
          -0.0055299868944 1.3120199897 -0.026558073283 -0.0042816774889 1.311630165 -0.026539965646
          -0.0044922844296 1.3126592103 -0.024960983045 -0.0035320350108 1.3115102845 -0.025605689816
          -0.0046201343926 1.3114642579 -0.025336670648 -0.0053180095196 1.311172122 -0.026603642223
          -0.011784952215 1.3103287551 -0.02040036434 -0.0028565323754 1.3142189556 -0.026219683348
          -0.0015131502117 1.3141913352 -0.025754692887 -0.0029319600449 1.3127841882 -0.025617433578
          -0.008263377105 1.3117415471 -0.028502504309 -0.0005027539201 1.3112823848 -0.028645722907
          -0.0060454358728 1.3116138566 -0.025603174723 -0.0073599095174 1.3121090558 -0.025745734727
          -0.0060707851173 1.3112790315 -0.026233746578 0.0029305298649 1.3064585206 -0.020237814353
          -0.0088880756042 1.3153851004 -0.020716876218 -0.0098266089138 1.3155003803 -0.020665653837
          -0.0089596817711 1.3147832732 -0.020445540049 -0.0084817216663 1.3142581392 -0.021017690991
          -0.0082746439309 1.3132083826 -0.020179937094 -0.0083344444122 1.3127866501 -0.020353089157
          -0.0079951707229 1.3131006293 -0.02103799524 -0.0076631127617 1.3127117254 -0.020454610165
          -0.0067627900834 1.31259121 -0.020591568412 -0.0075879411806 1.3117249505 -0.020654591924
          -0.0083396946965 1.3156269599 -0.021579112622 -0.0085053755051 1.3148919322 -0.020795500908
          -0.0078098129309 1.3142247555 -0.021085845414 -0.0079320364227 1.3136867888 -0.020714377681
          -0.0078446073066 1.3134172832 -0.020897947474 -0.007885983856 1.3129765541 -0.020877981112
          -0.0077403225038 1.312449283 -0.02066249521 -0.0079183522713 1.3121540338 -0.021064296724
          -0.0072259517511 1.3120204354 -0.020758460637 -0.0074023310279 1.3118184679 -0.021538581388
          -0.0077648774757 1.3152603631 -0.021788940577 -0.0066959086903 1.3141811285 -0.022169763964
          -0.0074730429975 1.314120286 -0.02147889537 -0.0074484502513 1.3137805069 -0.021554965053
          -0.0074473427709 1.3134663409 -0.021526844184 -0.007452787007 1.31304327 -0.021548668498
          -0.0074709795863 1.3125576963 -0.021524166724 -0.0074614312633 1.3120745669 -0.021463146791
          -0.0082018901732 1.3112502483 -0.022124877808 -0.0070900174932 1.3114792733 -0.021727077219
          -0.0071053974353 1.3145782207 -0.022603451182 -0.0073969374182 1.3145579344 -0.022301288609
          -0.0071065773413 1.3141558143 -0.022265159225 -0.0070516694766 1.3138580596 -0.022178241877
          -0.0069722598653 1.3135903711 -0.022050335499 -0.0069913767932 1.3131086129 -0.022107333353
          -0.0070787062545 1.312562297 -0.022159024221 -0.0070091813269 1.3120883476 -0.022233970494
          -0.0067474040852 1.3116216618 -0.022294145569 -0.0069508480193 1.3108249198 -0.022517385952
          -0.0070297030156 1.314791586 -0.022992965397 -0.0068571648849 1.3143416272 -0.023007616084
          -0.006533332797 1.3141943919 -0.022963691087 -0.0066877343155 1.3138353944 -0.022824193188
          -0.0066222775847 1.3136684261 -0.022653333179 -0.0066017656218 1.3131812792 -0.022670641209
          -0.0065482753604 1.312590084 -0.022795613256 -0.0067044405647 1.3120972815 -0.022931793146
          -0.0063738761837 1.3114242853 -0.022971444718 -0.0062336519696 1.3109962611 -0.022977674443
          -0.0069125209472 1.3146770229 -0.023277669275 -0.0066249106919 1.3143296617 -0.02358688587
          -0.0064751349999 1.314072916 -0.023579440746 -0.0065121950031 1.3138683534 -0.023468799256
          -0.0064436480775 1.3135607205 -0.023355425489 -0.0059303378699 1.3131515135 -0.023329662695
          -0.0059426512139 1.3126009649 -0.023423194031 -0.0058989573845 1.3119464308 -0.023536016842
          -0.0057539891939 1.3114082318 -0.023521296353 -0.005501001961 1.3109071809 -0.023233812124
          -0.0064934597832 1.3144918527 -0.024215751598 -0.0056703646118 1.3144654278 -0.024507157559
          -0.0064813312024 1.3139510322 -0.024189959223 -0.0068310619741 1.3138869353 -0.02388248491
          -0.006613284608 1.3138525829 -0.023796873879 -0.0049037493723 1.3134609849 -0.023838494895
          -0.0047874845807 1.3126051726 -0.023907966227 -0.005059008141 1.311826303 -0.024155176378
          -0.0058587062776 1.3115442624 -0.024442821458 -0.0050248111337 1.3107045253 -0.024162491351
          -0.0061449311603 1.3146971148 -0.024886796799 -0.006065604958 1.3141490805 -0.025132426488
          -0.0071486955962 1.3140355054 -0.02479657313 -0.0067752560696 1.3136454747 -0.024932005009
          -0.0069080125 1.3139867608 -0.024808797602 -0.0037519850242 1.3135217204 -0.024836864069
          -0.0039101202518 1.3124127639 -0.024897722284 -0.003550016412 1.3119472151 -0.02474765788
          -0.0045808726236 1.3112058728 -0.025051667341 -0.0045433143809 1.3109206459 -0.024825996387
          -0.0054747358366 1.3143349159 -0.025330134897 -0.005970698089 1.3139496814 -0.025325445143
          -0.0064229708893 1.3136040948 -0.025593625472 -0.0057794829369 1.3136706098 -0.025105061538
          -0.0064180940841 1.3132202171 -0.025281006095 -0.0033879574355 1.3128591697 -0.025275847754
          -0.0040804713134 1.3123938919 -0.025091129211 -0.0034939756239 1.3115178472 -0.025549281172
          -0.003837234589 1.3109940895 -0.02527234021 -0.0043254584325 1.310521659 -0.02524426197
          -0.0068398157594 1.3128561406 -0.025083854625 -0.0039083023249 1.315259162 -0.025728873041
          -0.0051734816582 1.3154170202 -0.024571874791 -0.0040470422462 1.3135262952 -0.024390414107
          -0.0066388457832 1.3147784419 -0.024488426238 -0.0024731666527 1.3142761684 -0.024486016865
          -0.0048872704855 1.3123055451 -0.024332896946 -0.0037427171858 1.3133366076 -0.024554512735
          -0.0049769829244 1.3122739323 -0.025632713923 -0.0019579764441 1.3088862014 -0.025079391547
          -0.0070668771982 1.314847575 -0.020825149648 -0.0094177863503 1.3162006029 -0.020943236049
          -0.0086530042587 1.3145143027 -0.019953347093 -0.0085590281681 1.3146791384 -0.020770766042
          -0.0083812469132 1.3138035736 -0.020477964654 -0.0082927171335 1.3134314878 -0.020521692804
          -0.0080153668788 1.3134290689 -0.020733395527 -0.0079493880782 1.3124226844 -0.019865400312
          -0.0070948269526 1.3132228156 -0.020953183432 -0.009571307318 1.3110386828 -0.020744197893
          -0.0092109501525 1.3166349088 -0.021759862399 -0.0079047937065 1.3150893505 -0.021256327421
          -0.0079971923993 1.3147729747 -0.020969403305 -0.0078764513528 1.3143214431 -0.02102004963
          -0.0078596834661 1.3138229993 -0.020928939222 -0.0078868166528 1.3134493461 -0.020945368284
          -0.0078776636125 1.3130602729 -0.020982441672 -0.0077561292871 1.3126606798 -0.020924161535
          -0.0078876543673 1.3121210281 -0.021221465411 -0.0065840393051 1.3129022416 -0.021709202802
          -0.0078341643143 1.3158206418 -0.021991316791 -0.0076244437543 1.3150968162 -0.021782725328
          -0.0075141848538 1.3147784015 -0.021683526008 -0.0074389289904 1.3143945251 -0.021640312802
          -0.0074663637842 1.3140286433 -0.02156942011 -0.0074780322539 1.3136121645 -0.021583913731
          -0.0074967167771 1.3131642644 -0.021629881395 -0.0073904209082 1.3126868446 -0.021676257275
          -0.0072968289264 1.3121557599 -0.021745526701 -0.0070806232909 1.312078893 -0.021914803389
          -0.0076920962992 1.3157427707 -0.022485016244 -0.0073360448463 1.3150058342 -0.022397197408
          -0.0071848210652 1.3147378741 -0.022330038874 -0.0070726156048 1.3144836984 -0.022158711329
          -0.0070886886073 1.3142227067 -0.022211304448 -0.0070235255739 1.3136893789 -0.022126990769
          -0.006989066176 1.3132520821 -0.022138264706 -0.0068989882655 1.3126570755 -0.022272799211
          -0.0067473564235 1.3120657554 -0.022359003258 -0.0064758895105 1.3119040588 -0.022477017352
          -0.0069170781604 1.3149961376 -0.023154429364 -0.0068666878014 1.3149928943 -0.023025073523
          -0.0068685603011 1.3147641443 -0.02292017899 -0.0067751070748 1.3143895999 -0.022816794121
          -0.0066964035237 1.314177533 -0.022742531149 -0.006614442837 1.3137719563 -0.022794215516
          -0.006437555931 1.3131599706 -0.022776630473 -0.0063768233365 1.3126525502 -0.022871138976
          -0.0063703848429 1.3120561898 -0.022992064135 -0.0063384812439 1.3112030758 -0.023094496731