<?xml version="1.0"?>
<VTKFile type="UnstructuredGrid" version="0.1" byte_order="LittleEndian" compressor="vtkZLibDataCompressor">
  <UnstructuredGrid>
    <FieldData>
      <DataArray type="Float64" Name="TIME" NumberOfTuples="1" format="ascii" RangeMin="0.30159369722" RangeMax="0.30159369722">
        0.30159369722
      </DataArray>
    </FieldData>
    <Piece NumberOfPoints="1000" NumberOfCells="0">
      <PointData>
        <DataArray type="Float64" Name="Damage" format="ascii" RangeMin="0" RangeMax="0.49719101124">
          0 0 0 0 0 0
          0 0 0 0 0 0.027932960894
          0 0 0 0 0 0
          0.027932960894 0 0 0.055084745763 0.071428571429 0.040345821326
          0.014164305949 0.012987012987 0.040345821326 0.071428571429 0.055084745763 0
          0 0.067669172932 0.11239193084 0.1074168798 0.037688442211 0.034562211982
          0.1074168798 0.11239193084 0.067669172932 0 0 0.074349442379
          0.16147308782 0.16834170854 0.12376237624 0.11286681716 0.16834170854 0.16147308782
          0.074349442379 0 0 0.084459459459 0.2 0.25806451613
          0.33860045147 0.39211618257 0.25806451613 0.2 0.084459459459 0
          0 0.093984962406 0.25360230548 0.36061381074 0.41959798995 0.46774193548
          0.36061381074 0.25360230548 0.093984962406 0 0 0.10593220339
          0.31493506494 0.40057636888 0.4447592068 0.49090909091 0.40057636888 0.31493506494
          0.10593220339 0 0 0.16759776536 0.3686440678 0.43984962406
          0.44609665428 0.49662162162 0.43984962406 0.3686440678 0.16759776536 0
          0 0.1677852349 0.36734693878 0.43891402715 0.44642857143 0.49593495935
          0.43891402715 0.36734693878 0.1677852349 0 0 0
          0 0 0 0 0 0
          0 0 0 0.027906976744 0 0
          0 0 0 0 0.027906976744 0
          0 0.056338028169 0.072776280323 0.040669856459 0.014117647059 0.012931034483
          0.040669856459 0.072776280323 0.056338028169 0 0 0.06875
          0.11483253589 0.10828025478 0.0375782881 0.034416826004 0.10828025478 0.11483253589
          0.06875 0 0 0.074303405573 0.16235294118 0.16910229645
          0.12371134021 0.11257035647 0.16910229645 0.16235294118 0.074303405573 0
          0 0.084269662921 0.20043103448 0.25812619503 0.33771106942 0.39242685026
          0.25812619503 0.20043103448 0.084269662921 0 0 0.09375
          0.25358851675 0.36093418259 0.41962421712 0.46845124283 0.36093418259 0.25358851675
          0.09375 0 0 0.10563380282 0.3153638814 0.4019138756
          0.44470588235 0.49137931034 0.4019138756 0.3153638814 0.10563380282 0
          0 0.16744186047 0.36971830986 0.440625 0.44582043344 0.49719101124
          0.440625 0.36971830986 0.16744186047 0 0 0.16759776536
          0.3686440678 0.43984962406 0.44609665428 0.49662162162 0.43984962406 0.3686440678
          0.16759776536 0 0 0 0 0
          0 0 0 0 0 0
          0 0.024647887324 0 0 0 0
          0 0 0.024647887324 0 0 0.051212938005
          0.06875 0.038817005545 0.012635379061 0.011666666667 0.038817005545 0.06875
          0.051212938005 0 0 0.064593301435 0.10905730129 0.10491803279
          0.036858974359 0.034023668639 0.10491803279 0.10905730129 0.064593301435 0
          0 0.070588235294 0.15523465704 0.16506410256 0.12283464567 0.11271676301
          0.16506410256 0.15523465704 0.070588235294 0 0 0.081896551724
          0.19333333333 0.25443786982 0.33959537572 0.38985313752 0.25443786982 0.19333333333
          0.081896551724 0 0 0.093301435407 0.24768946396 0.35573770492
          0.41987179487 0.46449704142 0.35573770492 0.24768946396 0.093301435407 0
          0 0.10781671159 0.30833333333 0.39556377079 0.4440433213 0.48666666667
          0.39556377079 0.30833333333 0.10781671159 0 0 0.16197183099
          0.35579514825 0.43062200957 0.44470588235 0.49137931034 0.43062200957 0.35579514825
          0.16197183099 0 0 0.16101694915 0.3538961039 0.42939481268
          0.4447592068 0.49090909091 0.42939481268 0.3538961039 0.16101694915 0
          0 0 0 0 0 0
          0 0 0 0 0 0.025
          0 0 0 0 0 0
          0.025 0 0 0.05023923445 0.068391866913 0.039344262295
          0.012820512821 0.011834319527 0.039344262295 0.068391866913 0.05023923445 0
          0 0.063694267516 0.10819672131 0.10465116279 0.036984352774 0.034120734908
          0.10465116279 0.10819672131 0.063694267516 0 0 0.070981210856
          0.15544871795 0.16500711238 0.12290502793 0.11282051282 0.16500711238 0.15544871795
          0.070981210856 0 0 0.082217973231 0.19378698225 0.25459317585
          0.33974358974 0.38981042654 0.25459317585 0.19378698225 0.082217973231 0
          0 0.093418259023 0.24918032787 0.35610465116 0.41963015647 0.46456692913
          0.35610465116 0.24918032787 0.093418259023 0 0 0.10765550239
          0.30868761553 0.39508196721 0.44391025641 0.48668639053 0.39508196721 0.30868761553
          0.10765550239 0 0 0.1625 0.35645933014 0.43099787686
          0.44467640919 0.4913957935 0.43099787686 0.35645933014 0.1625 0
          0 0.16165413534 0.35446685879 0.42966751918 0.44472361809 0.49078341014
          0.42966751918 0.35446685879 0.16165413534 0 0 0
          0 0 0 0 0 0
          0 0 0 0.02786377709 0 0
          0 0 0 0 0.02786377709 0
          0 0.054117647059 0.070397111913 0.040064102564 0.014173228346 0.013005780347
          0.040064102564 0.070397111913 0.054117647059 0 0 0.066805845511
          0.11057692308 0.106685633 0.037709497207 0.034615384615 0.106685633 0.11057692308
          0.066805845511 0 0 0.074226804124 0.16062992126 0.16759776536
          0.12362637363 0.11292346299 0.16759776536 0.16062992126 0.074226804124 0
          0 0.084427767355 0.19942196532 0.25769230769 0.33877038896 0.39145496536
          0.25769230769 0.19942196532 0.084427767355 0 0 0.093945720251
          0.25320512821 0.35988620199 0.41899441341 0.46666666667 0.35988620199 0.25320512821
          0.093945720251 0 0 0.10588235294 0.31407942238 0.39903846154
          0.44409448819 0.48988439306 0.39903846154 0.31407942238 0.10588235294 0
          0 0.16718266254 0.36705882353 0.43841336117 0.44536082474 0.49530956848
          0.43841336117 0.36705882353 0.16718266254 0 0 0.16728624535
          0.36543909348 0.43718592965 0.44554455446 0.49435665914 0.43718592965 0.36543909348
          0.16728624535 0 0 0 0 0
          0 0 0 0 0 0
          0 0.025280898876 0 0 0 0
          0 0 0.025280898876 0 0 0.049568965517
          0.066666666667 0.038461538462 0.013005780347 0.012016021362 0.038461538462 0.066666666667
          0.049568965517 0 0 0.06309751434 0.1050295858 0.10367454068
          0.037179487179 0.034360189573 0.10367454068 0.1050295858 0.06309751434 0
          0 0.071294559099 0.15462427746 0.1641025641 0.12296110414 0.11316397229
          0.1641025641 0.15462427746 0.071294559099 0 0 0.082616179002
          0.19359145527 0.25473933649 0.34064665127 0.38930481283 0.25473933649 0.19359145527
          0.082616179002 0 0 0.093690248566 0.24852071006 0.35564304462
          0.41923076923 0.46327014218 0.35564304462 0.24852071006 0.093690248566 0
          0 0.10775862069 0.30833333333 0.39349112426 0.4436416185 0.48598130841
          0.39349112426 0.30833333333 0.10775862069 0 0 0.16292134831
          0.35560344828 0.43021032505 0.44465290807 0.49053356282 0.43021032505 0.35560344828
          0.16292134831 0 0 0.16216216216 0.35324675325 0.42857142857
          0.44469525959 0.48962655602 0.42857142857 0.35324675325 0.16216216216 0
          0 0 0 0 0 0
          0 0 0 0 0 0.025
          0 0 0 0 0 0
          0.025 0 0 0.05023923445 0.068391866913 0.039344262295
          0.012820512821 0.011834319527 0.039344262295 0.068391866913 0.05023923445 0
          0 0.063694267516 0.10819672131 0.10465116279 0.036984352774 0.034120734908
          0.10465116279 0.10819672131 0.063694267516 0 0 0.070981210856
          0.15544871795 0.16500711238 0.12290502793 0.11282051282 0.16500711238 0.15544871795
          0.070981210856 0 0 0.082217973231 0.19378698225 0.25459317585
          0.33974358974 0.38981042654 0.25459317585 0.19378698225 0.082217973231 0
          0 0.093418259023 0.24918032787 0.35610465116 0.41963015647 0.46456692913
          0.35610465116 0.24918032787 0.093418259023 0 0 0.10765550239
          0.30868761553 0.39508196721 0.44391025641 0.48668639053 0.39508196721 0.30868761553
          0.10765550239 0 0 0.1625 0.35645933014 0.43099787686
          0.44467640919 0.4913957935 0.43099787686 0.35645933014 0.1625 0
          0 0.16165413534 0.35446685879 0.42966751918 0.44472361809 0.49078341014
          0.42966751918 0.35446685879 0.16165413534 0 0 0
          0 0 0 0 0 0
          0 0 0 0.024647887324 0 0
          0 0 0 0 0.024647887324 0
          0 0.051212938005 0.06875 0.038817005545 0.012635379061 0.011666666667
          0.038817005545 0.06875 0.051212938005 0 0 0.064593301435
          0.10905730129 0.10491803279 0.036858974359 0.034023668639 0.10491803279 0.10905730129
          0.064593301435 0 0 0.070588235294 0.15523465704 0.16506410256
          0.12283464567 0.11271676301 0.16506410256 0.15523465704 0.070588235294 0
          0 0.081896551724 0.19333333333 0.25443786982 0.33959537572 0.38985313752
          0.25443786982 0.19333333333 0.081896551724 0 0 0.093301435407
          0.24768946396 0.35573770492 0.41987179487 0.46449704142 0.35573770492 0.24768946396
          0.093301435407 0 0 0.10781671159 0.30833333333 0.39556377079
          0.4440433213 0.48666666667 0.39556377079 0.30833333333 0.10781671159 0
          0 0.16197183099 0.35579514825 0.43062200957 0.44470588235 0.49137931034
          0.43062200957 0.35579514825 0.16197183099 0 0 0.16101694915
          0.3538961039 0.42939481268 0.4447592068 0.49090909091 0.42939481268 0.3538961039
          0.16101694915 0 0 0 0 0
          0 0 0 0 0 0
          0 0.027906976744 0 0 0 0
          0 0 0.027906976744 0 0 0.056338028169
          0.072776280323 0.040669856459 0.014117647059 0.012931034483 0.040669856459 0.072776280323
          0.056338028169 0 0 0.06875 0.11483253589 0.10828025478
          0.0375782881 0.034416826004 0.10828025478 0.11483253589 0.06875 0
          0 0.074303405573 0.16235294118 0.16910229645 0.12371134021 0.11257035647
          0.16910229645 0.16235294118 0.074303405573 0 0 0.084269662921
          0.20043103448 0.25812619503 0.33771106942 0.39242685026 0.25812619503 0.20043103448
          0.084269662921 0 0 0.09375 0.25358851675 0.36093418259
          0.41962421712 0.46845124283 0.36093418259 0.25358851675 0.09375 0
          0 0.10563380282 0.3153638814 0.4019138756 0.44470588235 0.49137931034
          0.4019138756 0.3153638814 0.10563380282 0 0 0.16744186047
          0.36971830986 0.440625 0.44582043344 0.49719101124 0.440625 0.36971830986
          0.16744186047 0 0 0.16759776536 0.3686440678 0.43984962406
          0.44609665428 0.49662162162 0.43984962406 0.3686440678 0.16759776536 0
          0 0 0 0 0 0
          0 0 0 0 0 0.027932960894
          0 0 0 0 0 0
          0.027932960894 0 0 0.055084745763 0.071428571429 0.040345821326
          0.014164305949 0.012987012987 0.040345821326 0.071428571429 0.055084745763 0
          0 0.067669172932 0.11239193084 0.1074168798 0.037688442211 0.034562211982
          0.1074168798 0.11239193084 0.067669172932 0 0 0.074349442379
          0.16147308782 0.16834170854 0.12376237624 0.11286681716 0.16834170854 0.16147308782
          0.074349442379 0 0 0.084459459459 0.2 0.25806451613
          0.33860045147 0.39211618257 0.25806451613 0.2 0.084459459459 0
          0 0.093984962406 0.25360230548 0.36061381074 0.41959798995 0.46774193548
          0.36061381074 0.25360230548 0.093984962406 0 0 0.10593220339
          0.31493506494 0.40057636888 0.4447592068 0.49090909091 0.40057636888 0.31493506494
          0.10593220339 0 0 0.16759776536 0.3686440678 0.43984962406
          0.44609665428 0.49662162162 0.43984962406 0.3686440678 0.16759776536 0
          0 0.1677852349 0.36734693878 0.43891402715 0.44642857143 0.49593495935
          0.43891402715 0.36734693878 0.1677852349 0
        </DataArray>
        <DataArray type="Float64" Name="Displacement" NumberOfComponents="3" format="ascii" RangeMin="1.1037673923" RangeMax="1.1241728161">
          -0.0084377559013 1.108252032 -0.02473663468 -0.010557451232 1.1093265079 -0.02413870793
          -0.010554536851 1.1085189714 -0.024172116467 -0.010748067633 1.1091447711 -0.024951191994
          -0.0104863158 1.1094425321 -0.026104751589 -0.01057541302 1.1096547502 -0.026112182642
          -0.010212803341 1.1075820654 -0.02503654661 -0.010508559851 1.1059423282 -0.024236977362
          -0.010492347573 1.1056191977 -0.024222605786 -0.01259826582 1.103414958 -0.024883134983
          -0.010332082602 1.111558297 -0.025613090211 -0.0095326207275 1.1102228565 -0.026062818955
          -0.0099486038885 1.1089444272 -0.026062115313 -0.010282110363 1.1077858436 -0.025341036536
          -0.0097563598246 1.1071514113 -0.02539586858 -0.0099914254224 1.1068623136 -0.025784468577
          -0.0097483789548 1.1063411196 -0.025488407143 -0.010001626615 1.1060677365 -0.025819853565
          -0.010471742345 1.1066207676 -0.026083386371 -0.0097961079131 1.1068218304 -0.025543980104
          -0.0094511486165 1.1118640072 -0.027682135657 -0.0083600806152 1.1105482119 -0.028310930943
          -0.008617905656 1.1089758151 -0.027343176478 -0.009345531496 1.1090255597 -0.027397327418
          -0.0093091556744 1.1091313474 -0.027791223396 -0.0096252166929 1.1075912496 -0.027221554149
          -0.0096764043491 1.1074341555 -0.027309018874 -0.010354952038 1.1063328063 -0.027236956952
          -0.010658735189 1.1068956537 -0.028325178083 -0.0096075377308 1.1071344176 -0.027685180762
          -0.0078499183147 1.1121913491 -0.029682490784 -0.0070309349448 1.1108226495 -0.028521190396
          -0.0085356463851 1.1103082381 -0.028393285621 -0.0090436083858 1.1094468982 -0.028206228842
          -0.0088561719037 1.1092804184 -0.02864450177 -0.0093116903874 1.1086340724 -0.02832550946
          -0.0089566559267 1.1080444903 -0.028414468651 -0.0093715919016 1.1075993449 -0.028281447311
          -0.010910953181 1.1071681057 -0.028491058065 -0.010087995661 1.1075074494 -0.029618434092
          -0.0058464696019 1.1113695338 -0.031247329273 -0.0073217166781 1.1100133807 -0.02952854741
          -0.0078553741475 1.1107762641 -0.028988952185 -0.0084473415749 1.1095201973 -0.028965598547
          -0.0082003671432 1.1092340039 -0.028889248043 -0.0086554256109 1.1089302826 -0.02899928443
          -0.0083168497145 1.1078957279 -0.029018083416 -0.0089321547849 1.1081438049 -0.028991542356
          -0.0095506119825 1.1063937725 -0.029516247908 -0.010935178987 1.1067784522 -0.031135908564
          -0.0053848981696 1.1118788295 -0.031827785276 -0.0069891191266 1.1104955217 -0.029752793095
          -0.0067491256089 1.1107474656 -0.03004160498 -0.0070537586929 1.1095169135 -0.030104040346
          -0.0095041247041 1.1084283113 -0.031058694034 -0.0061058560937 1.1080807063 -0.031248407535
          -0.0087913094453 1.1081167704 -0.030145141209 -0.0090356319362 1.1081020149 -0.030081985829
          -0.0088351056415 1.1068925982 -0.029698837647 -0.010387873322 1.1072498895 -0.031705618842
          -0.005015229301 1.1113875965 -0.032498499961 -0.0064273516814 1.1106699925 -0.030588379317
          -0.007182618262 1.1099147794 -0.03139253256 -0.0065172270052 1.1093961353 -0.030170549097
          -0.0071302315829 1.1103206102 -0.029906258248 -0.007619744816 1.1097154869 -0.029822459464
          -0.0083159420066 1.1079639398 -0.030196973106 -0.00762391759 1.1072856004 -0.031304442547
          -0.0083836165805 1.1071314478 -0.030538709702 -0.0096037185727 1.1067306623 -0.03226786146
          -0.0032554012805 1.1106847143 -0.034020783802 -0.0085330974919 1.1114260264 -0.029674805273
          -0.0047271526257 1.1103862431 -0.031460484508 -0.0062801321446 1.1100953711 -0.031004226626
          -0.0047128726026 1.108158995 -0.030632154105 -0.0089518618568 1.1077005808 -0.030633129839
          -0.0072535513674 1.1085648212 -0.031022851518 -0.0090818262888 1.1078446587 -0.031409010358
          -0.0053177266323 1.1077769509 -0.029655601027 -0.010446540869 1.1059812175 -0.033886794088
          -0.0063787071997 1.1131631026 -0.033031150962 -0.00057930097549 1.1138886206 -0.03441248128
          -0.0075853169266 1.1105213812 -0.032171899715 -0.0045291768156 1.1112143586 -0.032194427283
          -0.0066161018752 1.1102110246 -0.030536488697 -0.0062221878449 1.1099322367 -0.030612507577
          -0.008208833133 1.1096757247 -0.03208287654 -0.0051400206506 1.1079248442 -0.032110759083
          -0.011853929575 1.1103367644 -0.034207526433 -0.0060865718867 1.1084832456 -0.032791519595
          0.0028439827524 1.1172989646 -0.032055193258 -0.0032989845261 1.1105789693 -0.034951818431
          -0.004400774392 1.1090923414 -0.032526104154 -0.0038938434817 1.1130958696 -0.027673689067
          -0.012571375304 1.1065280218 -0.038102815051 0.0011592143494 1.1062308554 -0.038001866457
          -0.0077598314056 1.111742454 -0.027459481466 -0.0071806000502 1.1065068457 -0.032494960409
          -0.0083140339765 1.1068666914 -0.034998439138 -0.014372414792 1.1129097005 -0.031714818405
          -0.011542335038 1.1137609575 -0.025181439037 -0.011955090824 1.1121484643 -0.025248826361
          -0.010614957138 1.1102710745 -0.025439040958 -0.010770092876 1.1094823624 -0.024764666806
          -0.010398230539 1.1088167428 -0.024937599656 -0.01061479804 1.1087261797 -0.02518116962
          -0.010197846519 1.1080611451 -0.024871355648 -0.010494033242 1.1074711851 -0.025154515008
          -0.0090070050979 1.108536349 -0.02513379459 -0.009587259569 1.1090981319 -0.025077082222
          -0.011850269659 1.1157100563 -0.02796455703 -0.0097499176353 1.1115377447 -0.026424736776
          -0.0093686874701 1.1102566598 -0.026748409952 -0.0098993152921 1.109644546 -0.026282193923
          -0.010069653328 1.1096845364 -0.026667786268 -0.01009386833 1.1086209191 -0.026138044705
          -0.010117773651 1.1081882828 -0.026392638005 -0.010620184501 1.10763069 -0.026707177174
          -0.010230505418 1.1078646083 -0.02633790284 -0.0081440443205 1.1111593047 -0.028043416116
          -0.0087223998342 1.1122930273 -0.0288340017 -0.0092098181363 1.1112540478 -0.027299872584
          -0.0093628727879 1.1110619292 -0.027883688594 -0.0094123037438 1.1102087967 -0.027675101789
          -0.0094680060581 1.1096508232 -0.027636171523 -0.0094723966973 1.1090048456 -0.02747276442
          -0.0095180778991 1.1087714656 -0.027723870943 -0.0095654287842 1.1084272273 -0.027812497497
          -0.0097426983165 1.1076276379 -0.027226877907 -0.01023509644 1.1076477432 -0.028702269727
          -0.0086956903068 1.1127466414 -0.0290659609 -0.0088011306985 1.1117120638 -0.028490157311
          -0.0087880137025 1.1109741011 -0.028363379989 -0.0088250610041 1.1104069419 -0.028622879006
          -0.0089714299268 1.1095964567 -0.028331263831 -0.0088693345689 1.109078303 -0.028310298011
          -0.0090033173291 1.1088267488 -0.028564354474 -0.0091274657279 1.1084060739 -0.028356159919
          -0.0090455293273 1.1080504412 -0.028425951857 -0.0091580818252 1.1081406287 -0.029014860973
          -0.0076869497437 1.1125322594 -0.029638599274 -0.0080245844748 1.1119025507 -0.029121396634
          -0.0079678772921 1.1111910037 -0.029047584182 -0.0084529334906 1.1102700592 -0.029084371418
          -0.0084202121971 1.1096511047 -0.028949861181 -0.0083210641872 1.1090701687 -0.028960261267
          -0.0084709018964 1.1087777345 -0.028989612442 -0.0089073404951 1.1085963864 -0.028999231512
          -0.0088487360667 1.108286226 -0.028935186746 -0.0091001373171 1.1078197411 -0.029539213609
          -0.0064953844929 1.1131115683 -0.031154070259 -0.0074301496038 1.1117586508 -0.029800701282
          -0.0075362358181 1.1110937215 -0.029685317494 -0.0073618369603 1.1105769238 -0.02933842637
          -0.0076290312339 1.1097503606 -0.029980640872 -0.0081936813718 1.1091656637 -0.029890804374
          -0.0083726405089 1.1090398275 -0.029192939667 -0.0083067480724 1.1084995739 -0.029707891887
          -0.0083352090915 1.1080758602 -0.029691471953 -0.0092789435919 1.1084267004 -0.03106858493
          -0.0070273382945 1.112459913 -0.030170793147 -0.0074412244482 1.111626825 -0.030174683472
          -0.0066856773327 1.1108457642 -0.031095812363 -0.0060263194212 1.1105803466 -0.030313245535
          -0.0070540863241 1.1095597177 -0.030910618314 -0.0076803225407 1.1092322713 -0.030785934617
          -0.0087151899788 1.109059571 -0.030211400277 -0.0080730667146 1.1082721827 -0.031020406998
          -0.0073307342704 1.1079637324 -0.030083333884 -0.0078130825835 1.107807195 -0.030083824184
          -0.0066885131178 1.1127985483 -0.03067775195 -0.0065697547999 1.1124425742 -0.030521993024
          -0.0062712165657 1.1110074858 -0.03127457135 -0.0061244574793 1.1104887154 -0.031732129285
          -0.0066017530466 1.1102542165 -0.031155589642 -0.007167755567 1.1097120636 -0.031135251008
          -0.0076550619621 1.108959302 -0.031781958919 -0.0075551915502 1.10843881 -0.031262234609
          -0.0071420899806 1.1088568226 -0.030416939976 -0.0070618827706 1.1081185184 -0.030668653242
          -0.0055173379586 1.1125353388 -0.031699831973 -0.0057240046432 1.1118706783 -0.031285465398
          -0.006149531972 1.1109089709 -0.031545233906 -0.0060299654681 1.1103967111 -0.032252726343
          -0.0066163220383 1.1104703376 -0.032718767826 -0.0061236580792 1.1099248109 -0.032702537793
          -0.006636671617 1.1088644626 -0.032231476028 -0.0065306950933 1.1083397797 -0.031483908127
          -0.0069243464893 1.1082512891 -0.031176405777 -0.0071488911256 1.1078236291 -0.031652988946
          -0.0044605734048 1.1100147671 -0.033946770238 -0.0069665324845 1.1091155948 -0.033785815832
          -0.0067541153592 1.1103504551 -0.032747158655 -0.0022898853967 1.1100940804 -0.030575778568
          -0.00071625213263 1.1103066348 -0.02922412125 -0.011008447387 1.1099213592 -0.02906175339
          -0.0094697622768 1.1084928979 -0.030775174429 -0.0048446058338 1.1077703586 -0.032856155307
          -0.0045704264162 1.105556651 -0.033799565581 -0.0071757267818 1.1055214221 -0.033844536705
          -0.011534903281 1.1131254807 -0.026192565822 -0.011593010207 1.1128121284 -0.025908089783
          -0.010443032743 1.1115826709 -0.025958803412 -0.010628684548 1.111616317 -0.02661117365
          -0.010463745435 1.1099363181 -0.025136850638 -0.010455740496 1.1095117975 -0.025385483174
          -0.010495486851 1.1099064935 -0.026558492294 -0.01059770428 1.1088667028 -0.025857004264
          -0.009448538566 1.1092376295 -0.025812156283 -0.0094464039803 1.1085899139 -0.026140895059
          -0.011018475422 1.1139899439 -0.02636144779 -0.0096106784255 1.1123890378 -0.02725018387
          -0.010035210083 1.1111503283 -0.026416776158 -0.010082514274 1.1108549918 -0.02656937588
          -0.010067980772 1.1105463835 -0.026762544396 -0.0099713344531 1.1099662558 -0.026664767182
          -0.0099387216424 1.1093103513 -0.026555926966 -0.0099965630522 1.1085253256 -0.026406332086
          -0.010457424689 1.1087212807 -0.027211717749 -0.0089609459784 1.1092515453 -0.026287136468
          -0.0093402758667 1.1125290979 -0.027461570269 -0.0089450451212 1.112144868 -0.027966323154
          -0.0094609841662 1.1118370037 -0.027720022454 -0.0095430539635 1.1109879249 -0.027528047129
          -0.0095302099991 1.110541012 -0.02764295036 -0.0094295095535 1.1099854689 -0.027616744314
          -0.0094277380015 1.1094833207 -0.02751355939 -0.0094811574448 1.1092296665 -0.027663201298
          -0.010037509262 1.1085429415 -0.027885527549 -0.0096338275575 1.1078309899 -0.027461732631
          -0.009343581692 1.1134964176 -0.028497325678 -0.009028153367 1.1125442316 -0.02850811615
          -0.0090443371756 1.1117020162 -0.028330393605 -0.009027154291 1.1110452458 -0.028409168927
          -0.0089133566481 1.1104139208 -0.028385243831 -0.0089297696979 1.1099015153 -0.028469435292
          -0.0089009163373 1.1094888947 -0.028387747441 -0.0088592530864 1.1091108175 -0.028263021333
          -0.0088391128092 1.1089144732 -0.02837731074 -0.0085918507705 1.1088168576 -0.028415575194
          -0.0084300501319 1.1132829207 -0.029062640116 -0.0084571766168 1.1124276847 -0.029069062418
          -0.0082428183307 1.1117963164 -0.02916774877 -0.0084107002278 1.1110931278 -0.029111333351
          -0.0084316544583 1.1103828365 -0.029181868972 -0.0083734008731 1.1099104287 -0.029188255401
          -0.0084464556545 1.1095728113 -0.029079187695 -0.0086154578596 1.1092109639 -0.029106386978
          -0.0084542453477 1.1087879712 -0.028976580421 -0.0084442988222 1.1086220616 -0.028956189745
          -0.0076388755427 1.112868524 -0.029725480878 -0.0073548789128 1.1124930892 -0.029982150915
          -0.0075476324936 1.1117872247 -0.02987947852 -0.0075155557034 1.1112300177 -0.029879527475
          -0.0075798864204 1.1104143348 -0.029941854543 -0.0083929730225 1.1098990391 -0.029836709818
          -0.0083657491953 1.109584423 -0.029786063927 -0.0082894960447 1.1091687527 -0.029820973836
          -0.0085206667339 1.1088490228 -0.029903600837 -0.0081518030894 1.1081337997 -0.0295712581
          -0.0068994824907 1.1133855501 -0.03031085489 -0.0063123176107 1.1124422336 -0.030954630775
          -0.0065447089318 1.1117929235 -0.030628405324 -0.0069953288099 1.1112463647 -0.030486697947
          -0.0066529015068 1.1105583228 -0.03025869988 -0.0081285197077 1.1100395264 -0.030221870942
          -0.0078544216951 1.1096614673 -0.030465980542 -0.0082727336534 1.1091837913 -0.030573810978
          -0.0084685203695 1.1088014931 -0.030861728764 -0.0078243016733 1.1087123664 -0.030151169954
          -0.0062736689455 1.1130306588 -0.03115553714 -0.0058234281965 1.1122629746 -0.031653608678
          -0.0065858126522 1.1116740153 -0.031302866715 -0.0068183968226 1.1112343792 -0.031293478252
          -0.0065032302421 1.1107246424 -0.031498933628 -0.0072079986785 1.1101449672 -0.031507009423
          -0.0069860676833 1.1096774302 -0.031231642413 -0.0071946466473 1.1091183752 -0.031232255061
          -0.0078919925143 1.1086028456 -0.031585606288 -0.0074610469165 1.1083634906 -0.031021896153
          -0.0061405746198 1.1129341778 -0.031562559515 -0.0057308645807 1.1119425248 -0.032292260629
          -0.0050832415697 1.1116812647 -0.03200724735 -0.0053874112356 1.1107068913 -0.032232768307
          -0.0070960419036 1.1107537287 -0.033094011032 -0.0055751109654 1.1102333689 -0.033170934545
          -0.0073364860037 1.1092088061 -0.032201168666 -0.0075678840339 1.1091043396 -0.031991099266
          -0.0069484325637 1.1083361717 -0.032242907834 -0.0064950737245 1.1081490824 -0.031462273434
          -0.0029586900271 1.1146491037 -0.031564656598 -0.0022770597742 1.1140809191 -0.031433352309
          -0.0045082357082 1.1133495848 -0.031090478112 -0.0052360958973 1.1112997541 -0.031475258258
          -0.00078518060727 1.1077910529 -0.032748346106 -0.011029016456 1.1072128652 -0.032747586617
          -0.0063697105346 1.109738169 -0.031456879638 -0.0070624544836 1.1107242243 -0.031151116104
          -0.0093633305832 1.1104545452 -0.031372812658 -0.0085526612749 1.1098720496 -0.031599578459
          -0.010200340409 1.112788326 -0.026990066123 -0.010546154273 1.1129598637 -0.026106421374
          -0.010444871705 1.1123726948 -0.026354131821 -0.010344514073 1.1113350367 -0.025866114659
          -0.010622425711 1.1110074853 -0.025905508979 -0.010425000836 1.1107072146 -0.02593109946
          -0.010844545191 1.1096762865 -0.025780350474 -0.010664865467 1.1097609936 -0.026334869735
          -0.010577797826 1.1092567007 -0.026006874444 -0.010834538124 1.108158785 -0.026879285757
          -0.010150336621 1.1131521401 -0.026582312553 -0.010175524772 1.1126772496 -0.02682951928
          -0.010268674897 1.112633165 -0.026897152565 -0.010228403325 1.1119886939 -0.026873165096
          -0.0100793052 1.1113398514 -0.026840438699 -0.0099641775152 1.1108631602 -0.026879607555
          -0.0097706393569 1.1104994412 -0.026857830055 -0.0097739948562 1.1099749558 -0.026887088311
          -0.0098469119441 1.1090311049 -0.026805569451 -0.0099197060381 1.108373584 -0.026479460298
          -0.0098378240025 1.1140469574 -0.027932486047 -0.010098118734 1.1133804629 -0.027635584101
          -0.0096321052738 1.1125489565 -0.027591931964 -0.0096425553707 1.1118258592 -0.027618036438
          -0.0095593738755 1.1111809609 -0.027678006181 -0.0094532384802 1.1106853395 -0.027627530244
          -0.0093591962352 1.11029072 -0.027612495275 -0.0093065441252 1.1099371075 -0.02755139267
          -0.0089074430909 1.1097380714 -0.027590972445 -0.0090761907984 1.1094149847 -0.027824584048
          -0.0089938723045 1.1139283836 -0.028573102523 -0.0090135095442 1.1131993278 -0.028467450546
          -0.0090371760235 1.1124837859 -0.0284876645 -0.0090559710357 1.1117961855 -0.028457014183
          -0.0090410389924 1.111180438 -0.028439638808 -0.0089059149732 1.1106691479 -0.028456189321
          -0.0088433373301 1.1102881465 -0.028370375292 -0.008875019725 1.1099027007 -0.028429529333
          -0.0089572993214 1.1095708802 -0.028401277652 -0.0088344518577 1.1092783433 -0.028450419861
          -0.0082986955636 1.1138470521 -0.029328398061 -0.008492185578 1.113202069 -0.029126345127
          -0.0083361246641 1.1125240332 -0.029231563107 -0.0083726454044 1.1118156144 -0.029028498884
          -0.0083914111735 1.1111836697 -0.029162748165 -0.0084412255236 1.1106559606 -0.029076371768
          -0.0084873779301 1.110285942 -0.029029841257 -0.0085288508082 1.1099440739 -0.02917838365
          -0.0084117241277 1.1095550527 -0.029041979869 -0.0085711475887 1.1091887215 -0.029238615718
          -0.007506153109 1.1141952408 -0.029835058204 -0.0072453789758 1.1132808273 -0.030042492559