<?xml version="1.0"?>
<VTKFile type="UnstructuredGrid" version="0.1" byte_order="LittleEndian" compressor="vtkZLibDataCompressor">
  <UnstructuredGrid>
    <FieldData>
      <DataArray type="Float64" Name="TIME" NumberOfTuples="1" format="ascii" RangeMin="0.24117898871" RangeMax="0.24117898871">
        0.24117898871
      </DataArray>
    </FieldData>
    <Piece NumberOfPoints="1000" NumberOfCells="0">
      <PointData>
        <DataArray type="Float64" Name="Damage" format="ascii" RangeMin="0" RangeMax="0.49719101124">
          0 0 0 0 0 0
          0 0 0 0 0 0.027932960894
          0 0 0 0 0 0
          0.027932960894 0 0 0.055084745763 0.071428571429 0.040345821326
          0.014164305949 0.012987012987 0.040345821326 0.071428571429 0.055084745763 0
          0 0.067669172932 0.11239193084 0.1074168798 0.037688442211 0.034562211982
          0.1074168798 0.11239193084 0.067669172932 0 0 0.074349442379
          0.16147308782 0.16834170854 0.12376237624 0.11286681716 0.16834170854 0.16147308782
          0.074349442379 0 0 0.084459459459 0.2 0.25806451613
          0.33860045147 0.39211618257 0.25806451613 0.2 0.084459459459 0
          0 0.093984962406 0.25360230548 0.36061381074 0.41959798995 0.46774193548
          0.36061381074 0.25360230548 0.093984962406 0 0 0.10593220339
          0.31493506494 0.40057636888 0.4447592068 0.49090909091 0.40057636888 0.31493506494
          0.10593220339 0 0 0.16759776536 0.3686440678 0.43984962406
          0.44609665428 0.49662162162 0.43984962406 0.3686440678 0.16759776536 0
          0 0.1677852349 0.36734693878 0.43891402715 0.44642857143 0.49593495935
          0.43891402715 0.36734693878 0.1677852349 0 0 0
          0 0 0 0 0 0
          0 0 0 0.027906976744 0 0
          0 0 0 0 0.027906976744 0
          0 0.056338028169 0.072776280323 0.040669856459 0.014117647059 0.012931034483
          0.040669856459 0.072776280323 0.056338028169 0 0 0.06875
          0.11483253589 0.10828025478 0.0375782881 0.034416826004 0.10828025478 0.11483253589
          0.06875 0 0 0.074303405573 0.16235294118 0.16910229645
          0.12371134021 0.11257035647 0.16910229645 0.16235294118 0.074303405573 0
          0 0.084269662921 0.20043103448 0.25812619503 0.33771106942 0.39242685026
          0.25812619503 0.20043103448 0.084269662921 0 0 0.09375
          0.25358851675 0.36093418259 0.41962421712 0.46845124283 0.36093418259 0.25358851675
          0.09375 0 0 0.10563380282 0.3153638814 0.4019138756
          0.44470588235 0.49137931034 0.4019138756 0.3153638814 0.10563380282 0
          0 0.16744186047 0.36971830986 0.440625 0.44582043344 0.49719101124
          0.440625 0.36971830986 0.16744186047 0 0 0.16759776536
          0.3686440678 0.43984962406 0.44609665428 0.49662162162 0.43984962406 0.3686440678
          0.16759776536 0 0 0 0 0
          0 0 0 0 0 0
          0 0.024647887324 0 0 0 0
          0 0 0.024647887324 0 0 0.051212938005
          0.06875 0.038817005545 0.012635379061 0.011666666667 0.038817005545 0.06875
          0.051212938005 0 0 0.064593301435 0.10905730129 0.10491803279
          0.036858974359 0.034023668639 0.10491803279 0.10905730129 0.064593301435 0
          0 0.070588235294 0.15523465704 0.16506410256 0.12283464567 0.11271676301
          0.16506410256 0.15523465704 0.070588235294 0 0 0.081896551724
          0.19333333333 0.25443786982 0.33959537572 0.38985313752 0.25443786982 0.19333333333
          0.081896551724 0 0 0.093301435407 0.24768946396 0.35573770492
          0.41987179487 0.46449704142 0.35573770492 0.24768946396 0.093301435407 0
          0 0.10781671159 0.30833333333 0.39556377079 0.4440433213 0.48666666667
          0.39556377079 0.30833333333 0.10781671159 0 0 0.16197183099
          0.35579514825 0.43062200957 0.44470588235 0.49137931034 0.43062200957 0.35579514825
          0.16197183099 0 0 0.16101694915 0.3538961039 0.42939481268
          0.4447592068 0.49090909091 0.42939481268 0.3538961039 0.16101694915 0
          0 0 0 0 0 0
          0 0 0 0 0 0.025
          0 0 0 0 0 0
          0.025 0 0 0.05023923445 0.068391866913 0.039344262295
          0.012820512821 0.011834319527 0.039344262295 0.068391866913 0.05023923445 0
          0 0.063694267516 0.10819672131 0.10465116279 0.036984352774 0.034120734908
          0.10465116279 0.10819672131 0.063694267516 0 0 0.070981210856
          0.15544871795 0.16500711238 0.12290502793 0.11282051282 0.16500711238 0.15544871795
          0.070981210856 0 0 0.082217973231 0.19378698225 0.25459317585
          0.33974358974 0.38981042654 0.25459317585 0.19378698225 0.082217973231 0
          0 0.093418259023 0.24918032787 0.35610465116 0.41963015647 0.46456692913
          0.35610465116 0.24918032787 0.093418259023 0 0 0.10765550239
          0.30868761553 0.39508196721 0.44391025641 0.48668639053 0.39508196721 0.30868761553
          0.10765550239 0 0 0.1625 0.35645933014 0.43099787686
          0.44467640919 0.4913957935 0.43099787686 0.35645933014 0.1625 0
          0 0.16165413534 0.35446685879 0.42966751918 0.44472361809 0.49078341014
          0.42966751918 0.35446685879 0.16165413534 0 0 0
          0 0 0 0 0 0
          0 0 0 0.02786377709 0 0
          0 0 0 0 0.02786377709 0
          0 0.054117647059 0.070397111913 0.040064102564 0.014173228346 0.013005780347
          0.040064102564 0.070397111913 0.054117647059 0 0 0.066805845511
          0.11057692308 0.106685633 0.037709497207 0.034615384615 0.106685633 0.11057692308
          0.066805845511 0 0 0.074226804124 0.16062992126 0.16759776536
          0.12362637363 0.11292346299 0.16759776536 0.16062992126 0.074226804124 0
          0 0.084427767355 0.19942196532 0.25769230769 0.33877038896 0.39145496536
          0.25769230769 0.19942196532 0.084427767355 0 0 0.093945720251
          0.25320512821 0.35988620199 0.41899441341 0.46666666667 0.35988620199 0.25320512821
          0.093945720251 0 0 0.10588235294 0.31407942238 0.39903846154
          0.44409448819 0.48988439306 0.39903846154 0.31407942238 0.10588235294 0
          0 0.16718266254 0.36705882353 0.43841336117 0.44536082474 0.49530956848
          0.43841336117 0.36705882353 0.16718266254 0 0 0.16728624535
          0.36543909348 0.43718592965 0.44554455446 0.49435665914 0.43718592965 0.36543909348
          0.16728624535 0 0 0 0 0
          0 0 0 0 0 0
          0 0.025280898876 0 0 0 0
          0 0 0.025280898876 0 0 0.049568965517
          0.066666666667 0.038461538462 0.013005780347 0.012016021362 0.038461538462 0.066666666667
          0.049568965517 0 0 0.06309751434 0.1050295858 0.10367454068
          0.037179487179 0.034360189573 0.10367454068 0.1050295858 0.06309751434 0
          0 0.071294559099 0.15462427746 0.1641025641 0.12296110414 0.11316397229
          0.1641025641 0.15462427746 0.071294559099 0 0 0.082616179002
          0.19359145527 0.25473933649 0.34064665127 0.38930481283 0.25473933649 0.19359145527
          0.082616179002 0 0 0.093690248566 0.24852071006 0.35564304462
          0.41923076923 0.46327014218 0.35564304462 0.24852071006 0.093690248566 0
          0 0.10775862069 0.30833333333 0.39349112426 0.4436416185 0.48598130841
          0.39349112426 0.30833333333 0.10775862069 0 0 0.16292134831
          0.35560344828 0.43021032505 0.44465290807 0.49053356282 0.43021032505 0.35560344828
          0.16292134831 0 0 0.16216216216 0.35324675325 0.42857142857
          0.44469525959 0.48962655602 0.42857142857 0.35324675325 0.16216216216 0
          0 0 0 0 0 0
          0 0 0 0 0 0.025
          0 0 0 0 0 0
          0.025 0 0 0.05023923445 0.068391866913 0.039344262295
          0.012820512821 0.011834319527 0.039344262295 0.068391866913 0.05023923445 0
          0 0.063694267516 0.10819672131 0.10465116279 0.036984352774 0.034120734908
          0.10465116279 0.10819672131 0.063694267516 0 0 0.070981210856
          0.15544871795 0.16500711238 0.12290502793 0.11282051282 0.16500711238 0.15544871795
          0.070981210856 0 0 0.082217973231 0.19378698225 0.25459317585
          0.33974358974 0.38981042654 0.25459317585 0.19378698225 0.082217973231 0
          0 0.093418259023 0.24918032787 0.35610465116 0.41963015647 0.46456692913
          0.35610465116 0.24918032787 0.093418259023 0 0 0.10765550239
          0.30868761553 0.39508196721 0.44391025641 0.48668639053 0.39508196721 0.30868761553
          0.10765550239 0 0 0.1625 0.35645933014 0.43099787686
          0.44467640919 0.4913957935 0.43099787686 0.35645933014 0.1625 0
          0 0.16165413534 0.35446685879 0.42966751918 0.44472361809 0.49078341014
          0.42966751918 0.35446685879 0.16165413534 0 0 0
          0 0 0 0 0 0
          0 0 0 0.024647887324 0 0
          0 0 0 0 0.024647887324 0
          0 0.051212938005 0.06875 0.038817005545 0.012635379061 0.011666666667
          0.038817005545 0.06875 0.051212938005 0 0 0.064593301435
          0.10905730129 0.10491803279 0.036858974359 0.034023668639 0.10491803279 0.10905730129
          0.064593301435 0 0 0.070588235294 0.15523465704 0.16506410256
          0.12283464567 0.11271676301 0.16506410256 0.15523465704 0.070588235294 0
          0 0.081896551724 0.19333333333 0.25443786982 0.33959537572 0.38985313752
          0.25443786982 0.19333333333 0.081896551724 0 0 0.093301435407
          0.24768946396 0.35573770492 0.41987179487 0.46449704142 0.35573770492 0.24768946396
          0.093301435407 0 0 0.10781671159 0.30833333333 0.39556377079
          0.4440433213 0.48666666667 0.39556377079 0.30833333333 0.10781671159 0
          0 0.16197183099 0.35579514825 0.43062200957 0.44470588235 0.49137931034
          0.43062200957 0.35579514825 0.16197183099 0 0 0.16101694915
          0.3538961039 0.42939481268 0.4447592068 0.49090909091 0.42939481268 0.3538961039
          0.16101694915 0 0 0 0 0
          0 0 0 0 0 0
          0 0.027906976744 0 0 0 0
          0 0 0.027906976744 0 0 0.056338028169
          0.072776280323 0.040669856459 0.014117647059 0.012931034483 0.040669856459 0.072776280323
          0.056338028169 0 0 0.06875 0.11483253589 0.10828025478
          0.0375782881 0.034416826004 0.10828025478 0.11483253589 0.06875 0
          0 0.074303405573 0.16235294118 0.16910229645 0.12371134021 0.11257035647
          0.16910229645 0.16235294118 0.074303405573 0 0 0.084269662921
          0.20043103448 0.25812619503 0.33771106942 0.39242685026 0.25812619503 0.20043103448
          0.084269662921 0 0 0.09375 0.25358851675 0.36093418259
          0.41962421712 0.46845124283 0.36093418259 0.25358851675 0.09375 0
          0 0.10563380282 0.3153638814 0.4019138756 0.44470588235 0.49137931034
          0.4019138756 0.3153638814 0.10563380282 0 0 0.16744186047
          0.36971830986 0.440625 0.44582043344 0.49719101124 0.440625 0.36971830986
          0.16744186047 0 0 0.16759776536 0.3686440678 0.43984962406
          0.44609665428 0.49662162162 0.43984962406 0.3686440678 0.16759776536 0
          0 0 0 0 0 0
          0 0 0 0 0 0.027932960894
          0 0 0 0 0 0
          0.027932960894 0 0 0.055084745763 0.071428571429 0.040345821326
          0.014164305949 0.012987012987 0.040345821326 0.071428571429 0.055084745763 0
          0 0.067669172932 0.11239193084 0.1074168798 0.037688442211 0.034562211982
          0.1074168798 0.11239193084 0.067669172932 0 0 0.074349442379
          0.16147308782 0.16834170854 0.12376237624 0.11286681716 0.16834170854 0.16147308782
          0.074349442379 0 0 0.084459459459 0.2 0.25806451613
          0.33860045147 0.39211618257 0.25806451613 0.2 0.084459459459 0
          0 0.093984962406 0.25360230548 0.36061381074 0.41959798995 0.46774193548
          0.36061381074 0.25360230548 0.093984962406 0 0 0.10593220339
          0.31493506494 0.40057636888 0.4447592068 0.49090909091 0.40057636888 0.31493506494
          0.10593220339 0 0 0.16759776536 0.3686440678 0.43984962406
          0.44609665428 0.49662162162 0.43984962406 0.3686440678 0.16759776536 0
          0 0.1677852349 0.36734693878 0.43891402715 0.44642857143 0.49593495935
          0.43891402715 0.36734693878 0.1677852349 0
        </DataArray>
        <DataArray type="Float64" Name="Displacement" NumberOfComponents="3" format="ascii" RangeMin="1.6652785575" RangeMax="1.6801610809">
          -0.0050985846093 1.6771662284 -0.010446291102 -0.0052084783062 1.672142319 -0.0085302751835
          -0.0044151616553 1.6735853354 -0.010048258495 -0.0040512480185 1.6715483298 -0.0084003698585
          -0.0042239408952 1.6709059077 -0.0078608354365 -0.0042657859958 1.6705684461 -0.00783266631
          -0.0043235376838 1.6708570782 -0.0083579005935 -0.00392763622 1.6724330077 -0.0099770925981
          -0.0031726988017 1.6705400069 -0.0086113405795 -0.0031472459568 1.675221163 -0.010425749625
          -0.0053921503652 1.6741273155 -0.010035035818 -0.0060764087214 1.6759082178 -0.010220855827
          -0.0043400972724 1.6724651409 -0.0097282395929 -0.0040014558319 1.6736533875 -0.010981492371
          -0.0038795413495 1.6736337213 -0.011186709211 -0.0040331130287 1.6731584913 -0.010930377745
          -0.0038817607364 1.6731270016 -0.011047958126 -0.0036201992572 1.6713301327 -0.0097268802008
          -0.0018921736558 1.6742243219 -0.010141258617 -0.0025458817833 1.6720943288 -0.010045813748
          -0.0032983548771 1.674249456 -0.011229308814 -0.0037255867945 1.6741418576 -0.011361025484
          -0.0034831078026 1.6738164999 -0.011077727805 -0.0040330091045 1.6736874801 -0.011144170528
          -0.0038446973785 1.6731796473 -0.011133306934 -0.0037025676974 1.6727580471 -0.010963344232
          -0.0034684818622 1.6731087974 -0.011199851432 -0.0040308206959 1.6727692076 -0.011071643309
          -0.0038496695233 1.672616554 -0.011425966592 -0.0041899317527 1.672375776 -0.011213253728
          -0.003399775722 1.6745996544 -0.011560539235 -0.0031964558266 1.674365368 -0.011993800429
          -0.0028900243774 1.6733044757 -0.011515859931 -0.0032664089811 1.6733618298 -0.011722235247
          -0.0035355995975 1.6722636029 -0.010966653078 -0.0035334271264 1.672029942 -0.010942310319
          -0.0037867282906 1.6727643093 -0.011684405482 -0.0042072480882 1.6722795146 -0.011517171337
          -0.0038901265491 1.6728682846 -0.011978333126 -0.003701713615 1.672657176 -0.011579248558
          -0.0027041641411 1.6744483355 -0.012094059897 -0.0021852608389 1.6746205261 -0.012398355985
          -0.0029374891985 1.6733890335 -0.011849528038 -0.0032044565147 1.673092367 -0.011523770436
          -0.0030551680737 1.6732158632 -0.011497149681 -0.0033210379972 1.672480487 -0.011547655448
          -0.0035402935603 1.6725319482 -0.011414953776 -0.0037101052336 1.6723493037 -0.011818685961
          -0.0044548358597 1.6730857757 -0.012389982658 -0.0039732021965 1.672482419 -0.012085570659
          -0.0019276370298 1.6740343049 -0.012449631288 -0.00083030021824 1.6744248077 -0.012539850896
          -0.0027690920246 1.6731111823 -0.012347734657 -0.0025847521475 1.6730486787 -0.012385842791
          -4.9069232704e-05 1.672962306 -0.010014871241 -0.0063859593273 1.6727049933 -0.0098874555656
          -0.0036388182096 1.6723184534 -0.012293003296 -0.0034494673026 1.6720573523 -0.012260083581
          -0.0053829470137 1.6729287349 -0.012521897157 -0.0042889050227 1.6720136453 -0.012398091427
          -0.0013564105181 1.6746478916 -0.012762563607 -0.00069816059213 1.674229262 -0.012728572837
          -0.0017791786834 1.6732045166 -0.012532049609 -0.0033095231188 1.6734807581 -0.011995674415
          -0.0011150199779 1.6735203465 -0.011006336351 -0.0046207222111 1.6733501157 -0.01103419015
          -0.0024487258041 1.6728532607 -0.011968474289 -0.0040090105584 1.6721161864 -0.012532722558
          -0.0051057099356 1.6727402612 -0.012726597866 -0.0044038644826 1.6727302673 -0.012693710235
          -0.00070077474021 1.6743021758 -0.0132478358 -0.0029914582543 1.6735889978 -0.011578807283
          -0.0015931383034 1.6733304748 -0.012459368308 0.0032347428214 1.6734633164 -0.010682281366
          0.0027384857285 1.6718234381 -0.0094956467356 -0.0081056852461 1.6716376144 -0.0094606331312
          -0.0086217559505 1.6728440753 -0.010650201678 -0.0037672201426 1.672279558 -0.012427607791
          -0.0024303100265 1.6721259539 -0.011576868354 -0.0047769321889 1.6724879887 -0.013295018534
          -0.0016362043982 1.6741771361 -0.011142150165 0.002245655602 1.6706818621 -0.016251552973
          3.5713993654e-05 1.6705704785 -0.014204803834 -0.0020473485197 1.6719449498 -0.013591244694
          -0.00075603654429 1.6732419663 -0.013133230653 -0.0042178798409 1.6729534336 -0.013086042877
          -0.0027650579982 1.6713318151 -0.013592820802 -0.0050014874403 1.6695638368 -0.014172269766
          -0.0073356273998 1.6692506617 -0.016319603247 -0.0032163232756 1.6722988365 -0.011008344018
          -0.0023535489794 1.6726573089 -0.014260810969 -0.0018994418367 1.6668048236 -0.019768073424
          0.0012755126938 1.6739059106 -0.013058002365 -0.0012871330172 1.6714293331 -0.015006160845
          -0.0035250990696 1.67624701 -0.013132590981 -0.00077568287645 1.6760349498 -0.013300360257
          -0.003254586428 1.6708033357 -0.014985357576 -0.0058073272394 1.672882037 -0.013016257156
          -0.0026478920026 1.6651579629 -0.019865071999 -0.002162590143 1.6710049926 -0.013952421548
          -0.004642710776 1.6738227383 -0.010012633227 -0.0032996803783 1.6741477519 -0.010833095087
          -0.0039605265041 1.6729908168 -0.009408437398 -0.0046674524273 1.674172137 -0.01095308939
          -0.0040999493818 1.6739078115 -0.011099178872 -0.004168188455 1.6734317799 -0.010821606528
          -0.0037431986295 1.6735868547 -0.011063182259 -0.0044009613853 1.6718718906 -0.0094171311931
          -0.0050925233282 1.6726229784 -0.010849751218 -0.0037499962926 1.6718145248 -0.0099828359294
          -0.003849167374 1.6763248794 -0.012429862192 -0.0041044700799 1.6745315524 -0.011365070862
          -0.0038094917451 1.6739050976 -0.01110678016 -0.0041521981863 1.6734746523 -0.010481953737
          -0.0040922784583 1.6731630693 -0.010592451142 -0.0038433991537 1.6732615384 -0.010860711504
          -0.0038199692851 1.6727502894 -0.010412161337 -0.0041528612365 1.6728126973 -0.011073129462
          -0.003875584703 1.6729803412 -0.011377955737 -0.0040149815695 1.6744307601 -0.012345343117
          -0.0043387538689 1.6748994121 -0.010612192027 -0.0036301758169 1.6739987329 -0.010843584528
          -0.0039600059124 1.6736634612 -0.010424678748 -0.0039509342779 1.6733090117 -0.010663212213
          -0.0038141049786 1.6730232865 -0.010808164147 -0.0037524365965 1.6728248364 -0.010852577158
          -0.0035700741287 1.6726858453 -0.01066107665 -0.0035713924054 1.6726025764 -0.010426667398
          -0.0039226537322 1.672489112 -0.010826722856 -0.0032106734655 1.6729283277 -0.010615837692
          -0.0027181412762 1.6750778777 -0.011572535878 -0.0030516456358 1.6739940314 -0.011198832112
          -0.0037068580165 1.6736717426 -0.010971597325 -0.0033556836581 1.6735280227 -0.011635480058
          -0.0035378100772 1.6730527511 -0.01132773131 -0.0035176838536 1.672788161 -0.011242490944
          -0.0037481316467 1.6728855351 -0.01163380396 -0.0033850727389 1.6725895564 -0.01094256554
          -0.0040689931598 1.672504621 -0.011204383882 -0.0043280339773 1.673160347 -0.011608352317
          -0.002184593615 1.6744889627 -0.01178642186 -0.002649156301 1.6743560408 -0.011365845641
          -0.0032037260664 1.6736679298 -0.011418651218 -0.0032191042341 1.6734164354 -0.011477302458
          -0.0032579164488 1.6730224029 -0.011540020082 -0.0033682487648 1.6727643174 -0.011553989246
          -0.0034375197209 1.6727682135 -0.011495312633 -0.0034360372434 1.6725783713 -0.011368835539
          -0.0040405367313 1.6728814488 -0.011372926101 -0.0044596540963 1.6725363227 -0.011790049021
          -0.0024738585432 1.6745445639 -0.011968761487 -0.0024767116747 1.6742720167 -0.011897365373
          -0.0026961444617 1.6738053376 -0.011678698808 -0.0027639699126 1.673453842 -0.011818884303
          -0.0029803770247 1.6730657053 -0.011915979917 -0.0032880759954 1.6728180023 -0.011883266547
          -0.0035298018362 1.6728265552 -0.011833176406 -0.0035188256338 1.6727144097 -0.011671332466
          -0.0037588252416 1.672778146 -0.011879087105 -0.003725224809 1.6726110592 -0.011972446019
          -0.001827956642 1.6746654957 -0.012368166218 -0.0025467604568 1.674079512 -0.012023400066
          -0.0024030103902 1.6736134387 -0.012322328639 -0.002659257011 1.6732821962 -0.012519297661
          -0.0024007507028 1.6728765695 -0.012400378685 -0.0034532171723 1.6726103136 -0.012452372623
          -0.0031381577098 1.6726229261 -0.012520580841 -0.0034400885313 1.6725298571 -0.012307898262
          -0.0032417116859 1.6725764604 -0.012005923576 -0.0039582170327 1.6727710696 -0.012375147242
          -0.0021341419964 1.6747173242 -0.011639651028 -0.0018415731834 1.674273787 -0.012192934669
          -0.0019307416455 1.6735313348 -0.012825294608 -0.0011504356122 1.673265755 -0.012625816212
          -0.0022880178351 1.673370559 -0.011739579055 -0.0030948645323 1.6731943096 -0.011684815599
          -0.0042122865417 1.6726475622 -0.012582639066 -0.00341170153 1.6724591036 -0.012799467605
          -0.0035163969402 1.6727705132 -0.012171575565 -0.003200837118 1.6727844889 -0.011623203493
          -0.0018014432774 1.671906501 -0.013388224853 -0.0021676151123 1.6726750007 -0.01282579125
          -0.0020251973851 1.6731911563 -0.012641542618 -0.0015992360957 1.6733582785 -0.012750631547
          -0.0019944059072 1.6731955414 -0.013278976285 -0.0028345444884 1.6730275549 -0.013321377071
          -0.0033256633632 1.672748076 -0.012733243431 -0.0029149226601 1.6721636387 -0.012619486508
          -0.0027696989751 1.6711923815 -0.012834701352 -0.0031068850553 1.6699387214 -0.013404820196
          0.001606211271 1.6774374779 -0.013003463368 -0.0069567132855 1.671930321 -0.01188439495
          -0.0021980511662 1.6746049186 -0.011960090896 -0.0026295467793 1.6743978768 -0.013745105494
          0.0023210857687 1.6719363461 -0.01208443849 -0.0069242324769 1.6716462799 -0.012170458453
          -0.0018042154038 1.673778279 -0.013799556998 -0.0023014568765 1.6736087928 -0.011936313517
          0.0024201913541 1.6704607343 -0.011831216453 -0.0063575124231 1.6758141619 -0.012922098245
          -0.0058175735658 1.6765357064 -0.010165292032 -0.0041490951856 1.674079502 -0.010160077355
          -0.0043215018585 1.6746489277 -0.01079963078 -0.0042503536142 1.6737244208 -0.010120442334
          -0.0042343297684 1.6741581177 -0.010839215908 -0.0041909673417 1.674065928 -0.011118295633
          -0.0041687416313 1.6731091535 -0.010170370285 -0.0040890531696 1.6735634835 -0.010784593593
          -0.0042740219401 1.6725115835 -0.01013959936 -0.0025513434361 1.6746413771 -0.010154126662
          -0.0032505183536 1.6737493155 -0.011219047401 -0.004323521419 1.67488336 -0.010823863518
          -0.0042169626478 1.6740651302 -0.010538731519 -0.0041169249607 1.6736300127 -0.010438079045
          -0.0040215643052 1.6735065921 -0.010613980266 -0.0039324855342 1.6733143842 -0.010589972499
          -0.0038361891697 1.6729893478 -0.010419792446 -0.0037436203288 1.6730236215 -0.010551526488
          -0.0036459520726 1.673361764 -0.010804094713 -0.0047594173992 1.671753348 -0.011224357467
          -0.0036211018183 1.6748722597 -0.010926544827 -0.0045238773959 1.6747281123 -0.010603283965
          -0.0038795239971 1.6741287705 -0.010899146835 -0.0038272457266 1.6738528177 -0.010916341894
          -0.0037465559044 1.6734975057 -0.010845646984 -0.0038072078765 1.6732822588 -0.010853013572
          -0.0036907262799 1.6732075968 -0.010911313378 -0.0036304306711 1.6730509067 -0.010890871521
          -0.0030571389406 1.6732071111 -0.010607576912 -0.003911549757 1.6729571062 -0.010923375258
          -0.0029972116113 1.6747152067 -0.011333850365 -0.0036043932009 1.67460693 -0.011106140601
          -0.0035677957997 1.674086104 -0.011149594891 -0.0035416544654 1.6737143569 -0.011223379858
          -0.0035563660477 1.6732329213 -0.011241784145 -0.0035478385195 1.6730213785 -0.011253543043
          -0.0035241721388 1.6730840289 -0.011186468832 -0.0035248256696 1.6730149212 -0.01114776897
          -0.0034861214727 1.6731031093 -0.011090613627 -0.0041042939962 1.6727794997 -0.0113038571
          -0.0027383150473 1.6745997616 -0.011713175991 -0.0031666660282 1.6744723215 -0.011401456697
          -0.00322792135 1.6741537209 -0.01147817083 -0.0032091065846 1.6737756984 -0.011498731769
          -0.0032166368245 1.6734022653 -0.011542320926 -0.003377545208 1.6731288548 -0.01157495402
          -0.0034409379646 1.6731397125 -0.011498635819 -0.0034370897336 1.6730749928 -0.011462648709
          -0.0034918319195 1.6729625319 -0.0113746872 -0.0039071976865 1.6726601607 -0.011674236747
          -0.0026766420594 1.6750086807 -0.01184644555 -0.0026358317744 1.6745333814 -0.011823050924
          -0.0026416189985 1.6741993502 -0.011815530347 -0.0025796717222 1.6737370055 -0.011763409564
          -0.0027037012771 1.6734616536 -0.011713388308 -0.0034830381164 1.6732407834 -0.011699447266
          -0.0036295983025 1.6730577804 -0.011759089374 -0.0035782115819 1.6731139489 -0.011800660837
          -0.0035680307316 1.6730177639 -0.011790977333 -0.0035296882769 1.6730637638 -0.011807222329
          -0.0016189920514 1.6752632362 -0.012573925032 -0.0021851162416 1.6745949868 -0.012092060202
          -0.0025720409576 1.6741156024 -0.012143353531 -0.0022987494325 1.673828711 -0.01216617421
          -0.0020905527691 1.673399917 -0.011974251004 -0.003738840604 1.6731766077 -0.011991145428
          -0.0035494116098 1.6731749716 -0.012180241684 -0.0032169517867 1.6730441033 -0.012147897181
          -0.0036251763866 1.6730928707 -0.012088679555 -0.0041733574934 1.6733438654 -0.012532401328
          -0.00199844288 1.675365588 -0.012033859199 -0.0016769470719 1.6744267179 -0.0127550415
          -0.0016712500079 1.6741877229 -0.01244962886 -0.0021733693552 1.6738624504 -0.012457010236
          -0.0012498569334 1.6734506971 -0.012105244341 -0.0040950120785 1.6732176891 -0.012159739417
          -0.0031958012477 1.6732045757 -0.01248362009 -0.0037313972907 1.6731074309 -0.012463633463
          -0.0036844862522 1.6729281866 -0.012740539035 -0.0033204270504 1.673428835 -0.011982831285
          -0.0011245425446 1.6763581696 -0.012731555105 -0.0019422224463 1.6745817064 -0.012398022681
          -0.00054153794502 1.6743731473 -0.012966145227 -0.00043281555955 1.672981923 -0.01345355567
          -0.001579201143 1.6729888396 -0.013885984389 -0.0033987545969 1.6727774718 -0.013852461354
          -0.004484920586 1.6723871848 -0.013444198337 -0.0043485406841 1.6733375481 -0.012956131842
          -0.0030178094896 1.6730734613 -0.012420637417 -0.0038371219261 1.6744731344 -0.012713585189
          -0.0050902481156 1.6711090738 -0.01235527248 -0.0052621528995 1.672240834 -0.011758626801
          -0.0013206317742 1.6747803337 -0.010756741122 -0.0041473750588 1.674875503 -0.012005598232
          -0.0029497244522 1.674482383 -0.014620252382 -0.0014793210362 1.6742960964 -0.014628303682
          -0.00037489740758 1.674230695 -0.012025028855 -0.0032126721369 1.6737215776 -0.010740844522
          0.00083052228155 1.6706997678 -0.011789085433 0.00044246038473 1.6693711054 -0.012327820086
          -0.0050709158105 1.6756984028 -0.01031992629 -0.0044531011166 1.6746575581 -0.010493627247
          -0.0041872324023 1.6741707855 -0.010113946071 -0.0040235176374 1.67393168 -0.010012049269
          -0.0042118454029 1.6739797257 -0.010258357661 -0.0042030784418 1.6737932229 -0.010247676947
          -0.0044176168276 1.6732376831 -0.010002006227 -0.0042244209151 1.6730908157 -0.010115853477
          -0.0039560218196 1.6731599682 -0.010455476703 -0.0034097142703 1.6736903941 -0.010303509502
          -0.0042010656325 1.6753275905 -0.01054343709 -0.00381419202 1.6745029938 -0.010659966719
          -0.0041296736774 1.6743189221 -0.010602922264 -0.0040854267283 1.6740241289 -0.010576672478
          -0.0040264705776 1.6737895641 -0.010630296492 -0.0039166326537 1.6735874788 -0.010661641162
          -0.0038841292873 1.6734012169 -0.010562185887 -0.0038494458764 1.6732172797 -0.010575756132
          -0.0041960075853 1.6729704195 -0.010651330009 -0.0036794424965 1.6734103925 -0.010520270951
          -0.0039001201431 1.6753228243 -0.010849542916 -0.0037217565541 1.6747295969 -0.010909012841
          -0.0039014829353 1.6743216927 -0.010893610777 -0.003805494926 1.6740996735 -0.010893225379
          -0.0037981687209 1.6738481905 -0.010863450913 -0.0037109371394 1.6736353513 -0.01084963251
          -0.0037192354829 1.673433744 -0.010889611563 -0.0036286687889 1.6732680199 -0.010878158585
          -0.003824390464 1.673207131 -0.010883236969 -0.0036806049534 1.6733735465 -0.010839369598
          -0.0032086144193 1.6749171663 -0.011064462016 -0.003436239646 1.6747969039 -0.01117579982
          -0.0035118741687 1.6744148412 -0.011110613714 -0.0035358068462 1.6740074547 -0.011184857727
          -0.0036042807785 1.6735815279 -0.011189541009 -0.003510204888 1.67337376 -0.011194416402
          -0.0035173559208 1.6733835024 -0.011221262726 -0.003595235954 1.6733487536 -0.011101217004
          -0.0036980916726 1.6732933331 -0.011165824492 -0.0039162065692 1.6729806123 -0.011045752462
          -0.0030267593619 1.6756048617 -0.011487160863 -0.0032167854029 1.6748857042 -0.011498034806
          -0.0031673078979 1.6744338539 -0.011525797552 -0.0032646748077 1.674065337 -0.011567237594
          -0.003272917515 1.6737049686 -0.011557628837 -0.0033493381451 1.6734561646 -0.011618009081
          -0.0034029575381 1.6734205406 -0.01158442865 -0.0034893872355 1.6733598226 -0.011516876274
          -0.0034626289811 1.6733823286 -0.011474500977 -0.0036480778428 1.6736794828 -0.011456313127