<?xml version="1.0"?>
<VTKFile type="UnstructuredGrid" version="0.1" byte_order="LittleEndian" compressor="vtkZLibDataCompressor">
  <UnstructuredGrid>
    <FieldData>
      <DataArray type="Float64" Name="TIME" NumberOfTuples="1" format="ascii" RangeMin="0.21271694826" RangeMax="0.21271694826">
        0.21271694826
      </DataArray>
    </FieldData>
    <Piece NumberOfPoints="1000" NumberOfCells="0">
      <PointData>
        <DataArray type="Float64" Name="Damage" format="ascii" RangeMin="0" RangeMax="0.49719101124">
          0 0 0 0 0 0
          0 0 0 0 0 0.027932960894
          0 0 0 0 0 0
          0.027932960894 0 0 0.055084745763 0.071428571429 0.040345821326
          0.014164305949 0.012987012987 0.040345821326 0.071428571429 0.055084745763 0
          0 0.067669172932 0.11239193084 0.1074168798 0.037688442211 0.034562211982
          0.1074168798 0.11239193084 0.067669172932 0 0 0.074349442379
          0.16147308782 0.16834170854 0.12376237624 0.11286681716 0.16834170854 0.16147308782
          0.074349442379 0 0 0.084459459459 0.2 0.25806451613
          0.33860045147 0.39211618257 0.25806451613 0.2 0.084459459459 0
          0 0.093984962406 0.25360230548 0.36061381074 0.41959798995 0.46774193548
          0.36061381074 0.25360230548 0.093984962406 0 0 0.10593220339
          0.31493506494 0.40057636888 0.4447592068 0.49090909091 0.40057636888 0.31493506494
          0.10593220339 0 0 0.16759776536 0.3686440678 0.43984962406
          0.44609665428 0.49662162162 0.43984962406 0.3686440678 0.16759776536 0
          0 0.1677852349 0.36734693878 0.43891402715 0.44642857143 0.49593495935
          0.43891402715 0.36734693878 0.1677852349 0 0 0
          0 0 0 0 0 0
          0 0 0 0.027906976744 0 0
          0 0 0 0 0.027906976744 0
          0 0.056338028169 0.072776280323 0.040669856459 0.014117647059 0.012931034483
          0.040669856459 0.072776280323 0.056338028169 0 0 0.06875
          0.11483253589 0.10828025478 0.0375782881 0.034416826004 0.10828025478 0.11483253589
          0.06875 0 0 0.074303405573 0.16235294118 0.16910229645
          0.12371134021 0.11257035647 0.16910229645 0.16235294118 0.074303405573 0
          0 0.084269662921 0.20043103448 0.25812619503 0.33771106942 0.39242685026
          0.25812619503 0.20043103448 0.084269662921 0 0 0.09375
          0.25358851675 0.36093418259 0.41962421712 0.46845124283 0.36093418259 0.25358851675
          0.09375 0 0 0.10563380282 0.3153638814 0.4019138756
          0.44470588235 0.49137931034 0.4019138756 0.3153638814 0.10563380282 0
          0 0.16744186047 0.36971830986 0.440625 0.44582043344 0.49719101124
          0.440625 0.36971830986 0.16744186047 0 0 0.16759776536
          0.3686440678 0.43984962406 0.44609665428 0.49662162162 0.43984962406 0.3686440678
          0.16759776536 0 0 0 0 0
          0 0 0 0 0 0
          0 0.024647887324 0 0 0 0
          0 0 0.024647887324 0 0 0.051212938005
          0.06875 0.038817005545 0.012635379061 0.011666666667 0.038817005545 0.06875
          0.051212938005 0 0 0.064593301435 0.10905730129 0.10491803279
          0.036858974359 0.034023668639 0.10491803279 0.10905730129 0.064593301435 0
          0 0.070588235294 0.15523465704 0.16506410256 0.12283464567 0.11271676301
          0.16506410256 0.15523465704 0.070588235294 0 0 0.081896551724
          0.19333333333 0.25443786982 0.33959537572 0.38985313752 0.25443786982 0.19333333333
          0.081896551724 0 0 0.093301435407 0.24768946396 0.35573770492
          0.41987179487 0.46449704142 0.35573770492 0.24768946396 0.093301435407 0
          0 0.10781671159 0.30833333333 0.39556377079 0.4440433213 0.48666666667
          0.39556377079 0.30833333333 0.10781671159 0 0 0.16197183099
          0.35579514825 0.43062200957 0.44470588235 0.49137931034 0.43062200957 0.35579514825
          0.16197183099 0 0 0.16101694915 0.3538961039 0.42939481268
          0.4447592068 0.49090909091 0.42939481268 0.3538961039 0.16101694915 0
          0 0 0 0 0 0
          0 0 0 0 0 0.025
          0 0 0 0 0 0
          0.025 0 0 0.05023923445 0.068391866913 0.039344262295
          0.012820512821 0.011834319527 0.039344262295 0.068391866913 0.05023923445 0
          0 0.063694267516 0.10819672131 0.10465116279 0.036984352774 0.034120734908
          0.10465116279 0.10819672131 0.063694267516 0 0 0.070981210856
          0.15544871795 0.16500711238 0.12290502793 0.11282051282 0.16500711238 0.15544871795
          0.070981210856 0 0 0.082217973231 0.19378698225 0.25459317585
          0.33974358974 0.38981042654 0.25459317585 0.19378698225 0.082217973231 0
          0 0.093418259023 0.24918032787 0.35610465116 0.41963015647 0.46456692913
          0.35610465116 0.24918032787 0.093418259023 0 0 0.10765550239
          0.30868761553 0.39508196721 0.44391025641 0.48668639053 0.39508196721 0.30868761553
          0.10765550239 0 0 0.1625 0.35645933014 0.43099787686
          0.44467640919 0.4913957935 0.43099787686 0.35645933014 0.1625 0
          0 0.16165413534 0.35446685879 0.42966751918 0.44472361809 0.49078341014
          0.42966751918 0.35446685879 0.16165413534 0 0 0
          0 0 0 0 0 0
          0 0 0 0.02786377709 0 0
          0 0 0 0 0.02786377709 0
          0 0.054117647059 0.070397111913 0.040064102564 0.014173228346 0.013005780347
          0.040064102564 0.070397111913 0.054117647059 0 0 0.066805845511
          0.11057692308 0.106685633 0.037709497207 0.034615384615 0.106685633 0.11057692308
          0.066805845511 0 0 0.074226804124 0.16062992126 0.16759776536
          0.12362637363 0.11292346299 0.16759776536 0.16062992126 0.074226804124 0
          0 0.084427767355 0.19942196532 0.25769230769 0.33877038896 0.39145496536
          0.25769230769 0.19942196532 0.084427767355 0 0 0.093945720251
          0.25320512821 0.35988620199 0.41899441341 0.46666666667 0.35988620199 0.25320512821
          0.093945720251 0 0 0.10588235294 0.31407942238 0.39903846154
          0.44409448819 0.48988439306 0.39903846154 0.31407942238 0.10588235294 0
          0 0.16718266254 0.36705882353 0.43841336117 0.44536082474 0.49530956848
          0.43841336117 0.36705882353 0.16718266254 0 0 0.16728624535
          0.36543909348 0.43718592965 0.44554455446 0.49435665914 0.43718592965 0.36543909348
          0.16728624535 0 0 0 0 0
          0 0 0 0 0 0
          0 0.025280898876 0 0 0 0
          0 0 0.025280898876 0 0 0.049568965517
          0.066666666667 0.038461538462 0.013005780347 0.012016021362 0.038461538462 0.066666666667
          0.049568965517 0 0 0.06309751434 0.1050295858 0.10367454068
          0.037179487179 0.034360189573 0.10367454068 0.1050295858 0.06309751434 0
          0 0.071294559099 0.15462427746 0.1641025641 0.12296110414 0.11316397229
          0.1641025641 0.15462427746 0.071294559099 0 0 0.082616179002
          0.19359145527 0.25473933649 0.34064665127 0.38930481283 0.25473933649 0.19359145527
          0.082616179002 0 0 0.093690248566 0.24852071006 0.35564304462
          0.41923076923 0.46327014218 0.35564304462 0.24852071006 0.093690248566 0
          0 0.10775862069 0.30833333333 0.39349112426 0.4436416185 0.48598130841
          0.39349112426 0.30833333333 0.10775862069 0 0 0.16292134831
          0.35560344828 0.43021032505 0.44465290807 0.49053356282 0.43021032505 0.35560344828
          0.16292134831 0 0 0.16216216216 0.35324675325 0.42857142857
          0.44469525959 0.48962655602 0.42857142857 0.35324675325 0.16216216216 0
          0 0 0 0 0 0
          0 0 0 0 0 0.025
          0 0 0 0 0 0
          0.025 0 0 0.05023923445 0.068391866913 0.039344262295
          0.012820512821 0.011834319527 0.039344262295 0.068391866913 0.05023923445 0
          0 0.063694267516 0.10819672131 0.10465116279 0.036984352774 0.034120734908
          0.10465116279 0.10819672131 0.063694267516 0 0 0.070981210856
          0.15544871795 0.16500711238 0.12290502793 0.11282051282 0.16500711238 0.15544871795
          0.070981210856 0 0 0.082217973231 0.19378698225 0.25459317585
          0.33974358974 0.38981042654 0.25459317585 0.19378698225 0.082217973231 0
          0 0.093418259023 0.24918032787 0.35610465116 0.41963015647 0.46456692913
          0.35610465116 0.24918032787 0.093418259023 0 0 0.10765550239
          0.30868761553 0.39508196721 0.44391025641 0.48668639053 0.39508196721 0.30868761553
          0.10765550239 0 0 0.1625 0.35645933014 0.43099787686
          0.44467640919 0.4913957935 0.43099787686 0.35645933014 0.1625 0
          0 0.16165413534 0.35446685879 0.42966751918 0.44472361809 0.49078341014
          0.42966751918 0.35446685879 0.16165413534 0 0 0
          0 0 0 0 0 0
          0 0 0 0.024647887324 0 0
          0 0 0 0 0.024647887324 0
          0 0.051212938005 0.06875 0.038817005545 0.012635379061 0.011666666667
          0.038817005545 0.06875 0.051212938005 0 0 0.064593301435
          0.10905730129 0.10491803279 0.036858974359 0.034023668639 0.10491803279 0.10905730129
          0.064593301435 0 0 0.070588235294 0.15523465704 0.16506410256
          0.12283464567 0.11271676301 0.16506410256 0.15523465704 0.070588235294 0
          0 0.081896551724 0.19333333333 0.25443786982 0.33959537572 0.38985313752
          0.25443786982 0.19333333333 0.081896551724 0 0 0.093301435407
          0.24768946396 0.35573770492 0.41987179487 0.46449704142 0.35573770492 0.24768946396
          0.093301435407 0 0 0.10781671159 0.30833333333 0.39556377079
          0.4440433213 0.48666666667 0.39556377079 0.30833333333 0.10781671159 0
          0 0.16197183099 0.35579514825 0.43062200957 0.44470588235 0.49137931034
          0.43062200957 0.35579514825 0.16197183099 0 0 0.16101694915
          0.3538961039 0.42939481268 0.4447592068 0.49090909091 0.42939481268 0.3538961039
          0.16101694915 0 0 0 0 0
          0 0 0 0 0 0
          0 0.027906976744 0 0 0 0
          0 0 0.027906976744 0 0 0.056338028169
          0.072776280323 0.040669856459 0.014117647059 0.012931034483 0.040669856459 0.072776280323
          0.056338028169 0 0 0.06875 0.11483253589 0.10828025478
          0.0375782881 0.034416826004 0.10828025478 0.11483253589 0.06875 0
          0 0.074303405573 0.16235294118 0.16910229645 0.12371134021 0.11257035647
          0.16910229645 0.16235294118 0.074303405573 0 0 0.084269662921
          0.20043103448 0.25812619503 0.33771106942 0.39242685026 0.25812619503 0.20043103448
          0.084269662921 0 0 0.09375 0.25358851675 0.36093418259
          0.41962421712 0.46845124283 0.36093418259 0.25358851675 0.09375 0
          0 0.10563380282 0.3153638814 0.4019138756 0.44470588235 0.49137931034
          0.4019138756 0.3153638814 0.10563380282 0 0 0.16744186047
          0.36971830986 0.440625 0.44582043344 0.49719101124 0.440625 0.36971830986
          0.16744186047 0 0 0.16759776536 0.3686440678 0.43984962406
          0.44609665428 0.49662162162 0.43984962406 0.3686440678 0.16759776536 0
          0 0 0 0 0 0
          0 0 0 0 0 0.027932960894
          0 0 0 0 0 0
          0.027932960894 0 0 0.055084745763 0.071428571429 0.040345821326
          0.014164305949 0.012987012987 0.040345821326 0.071428571429 0.055084745763 0
          0 0.067669172932 0.11239193084 0.1074168798 0.037688442211 0.034562211982
          0.1074168798 0.11239193084 0.067669172932 0 0 0.074349442379
          0.16147308782 0.16834170854 0.12376237624 0.11286681716 0.16834170854 0.16147308782
          0.074349442379 0 0 0.084459459459 0.2 0.25806451613
          0.33860045147 0.39211618257 0.25806451613 0.2 0.084459459459 0
          0 0.093984962406 0.25360230548 0.36061381074 0.41959798995 0.46774193548
          0.36061381074 0.25360230548 0.093984962406 0 0 0.10593220339
          0.31493506494 0.40057636888 0.4447592068 0.49090909091 0.40057636888 0.31493506494
          0.10593220339 0 0 0.16759776536 0.3686440678 0.43984962406
          0.44609665428 0.49662162162 0.43984962406 0.3686440678 0.16759776536 0
          0 0.1677852349 0.36734693878 0.43891402715 0.44642857143 0.49593495935
          0.43891402715 0.36734693878 0.1677852349 0
        </DataArray>
        <DataArray type="Float64" Name="Displacement" NumberOfComponents="3" format="ascii" RangeMin="1.9341474352" RangeMax="1.9470825176">
          0.00069019162377 1.9357339517 -0.0004413786705 -0.00043777677995 1.9383034436 -0.00030654382125
          -0.0011213099644 1.9385176526 -0.0016924353346 -0.0011187317865 1.9385108374 -0.0018841915558
          -0.0011764258002 1.938549518 -0.0019918580953 -0.0011878408401 1.9384895124 -0.0020698869084
          -0.0010900803848 1.9383379383 -0.0019195747609 -0.0011162385137 1.9382123723 -0.0017395688891
          -0.0017763582121 1.937874449 -0.00032827016064 -0.0030993702327 1.9350894858 -0.00047576498997
          -1.7399546088e-05 1.9388016755 -0.0012817576392 -0.0015763574478 1.9397684835 -0.0022925697789
          -0.0011070376473 1.9402278905 -0.00349894497 -0.0010569112768 1.9395291266 -0.0031041702554
          -0.0010215230038 1.9392966532 -0.0029702055937 -0.00090598066391 1.9391466356 -0.0028729871885
          -0.0010730474204 1.9393292013 -0.0031216462519 -0.00098128695355 1.9399324838 -0.0035217276805
          -0.00053343125087 1.9393306048 -0.0023306183839 -0.0021383295756 1.9382580887 -0.0013558322825
          -0.0013560071187 1.9396543223 -0.0024199834262 -0.00046871914241 1.9395225985 -0.0031547129743
          -0.00076059575245 1.9391969147 -0.0028682557708 -0.0011605779379 1.9389432538 -0.0025480182794
          -0.00099853632254 1.9387335598 -0.002582320256 -0.00099214384146 1.9386203822 -0.0025633496154
          -0.00081094964375 1.9387546148 -0.0025466994993 -0.0012094847228 1.9388767689 -0.0028714276648
          -0.0015340521552 1.9390813589 -0.003193111493 -0.00059601541706 1.9390951066 -0.0024227234151
          -0.0011075144467 1.9395561557 -0.0025382575082 -0.00014110279642 1.9392235561 -0.0032397693549
          -0.00094072521214 1.939287266 -0.0029135301679 -0.00096068264395 1.9388375962 -0.0028871488355
          -0.00090274865818 1.9386489009 -0.00294222431 -0.0010021368082 1.9385821633 -0.0029286821289
          -0.00089723763259 1.9386397745 -0.0028926706412 -0.00091171731677 1.9389693548 -0.0029255999753
          -0.001729457125 1.9387999294 -0.0032799363123 -0.00072009110331 1.9389878748 -0.0025327174518
          -0.00084229617413 1.939295221 -0.0027215715463 -1.3350622757e-05 1.9399206733 -0.003382645271
          -0.00063069677837 1.9392727064 -0.0028042196447 -0.00036275084573 1.9390274699 -0.0029595219181
          -0.00040822859196 1.9390046956 -0.0028129001383 -0.0011045035252 1.9387551028 -0.0029272493392
          -0.001370386509 1.9388350918 -0.0029738721899 -0.0010958928633 1.9389490862 -0.0028218929769
          -0.0017397743116 1.9394937996 -0.0034160481883 -0.00086616531707 1.9387488794 -0.0027152657371
          -0.00052126280917 1.9397724865 -0.002861746641 0.00040220230406 1.9396085319 -0.0035538259037
          -0.00034017760826 1.9393808649 -0.0029317167277 -0.00065917150686 1.9389576498 -0.0031054167969
          -0.0013966745386 1.9385177932 -0.0038949738387 -0.00021117171792 1.9384348669 -0.0038949492656
          -0.00094647774843 1.9387591144 -0.0031071616922 -0.0012620941055 1.9390627593 -0.0029379275134
          -0.0020468162072 1.9391759303 -0.0035830826927 -0.0010847010754 1.9392240623 -0.0028545959344
          -0.00038993238902 1.9396393687 -0.002762348878 0.0010729769366 1.9400846301 -0.0034515397203
          -0.0001579197117 1.939700734 -0.0026691741956 -0.00064858519413 1.9391282069 -0.0031237370374
          -0.00044862915684 1.9390039586 -0.00326493603 -0.0010064005665 1.9389434212 -0.0032788608152
          -0.0008506077446 1.9389339564 -0.0031237447341 -0.0013351330517 1.9393826703 -0.0026829172851
          -0.0026054407061 1.9396523823 -0.003486538403 -0.0010841890788 1.9390824724 -0.0027434460761
          -0.00036698513131 1.938892368 -0.0030434115255 0.0011017149715 1.9396080751 -0.0035924158843
          0.00040909913489 1.9395912669 -0.002950237936 -0.00023646686439 1.9391207417 -0.0032481502308
          0.00047858243459 1.9382992659 -0.0033236259215 -0.0017921723307 1.9382130422 -0.00337042806
          -0.0011394099818 1.938939433 -0.003234565245 -0.0018024632368 1.939292625 -0.0029438054197
          -0.002509385205 1.9391847076 -0.0036149048921 -0.00094862568205 1.9382862951 -0.0030118698378
          0.00044320131595 1.9425977452 -0.0017964524584 0.00014474457205 1.94118083 -0.0023176884367
          0.00062824053516 1.9394714567 -0.0037839246463 0.0010781286237 1.9396613726 -0.0032156508719
          -8.2387985964e-05 1.9422504736 -0.0019656793867 -0.0010952965986 1.9421525568 -0.0020296062983
          -0.0023164470656 1.9394177542 -0.0032524941845 -0.0018800822943 1.9390996298 -0.0038234299069
          -0.0013553237946 1.9406615023 -0.0023533259211 -0.0015848939095 1.9420603856 -0.0016806904139
          0.0028576919949 1.9456053255 0.001102275786 0.0023334073306 1.9460527545 0.0029224588763
          0.00092205333674 1.9447712414 0.0021646067273 0.00068881401867 1.9442358803 0.0022305721922
          -0.0012772095392 1.9442230241 0.001922152556 0.00032715970887 1.9442515106 0.0019106795035
          -0.0017524874885 1.944093194 0.0022805571383 -0.0019902984786 1.9444759212 0.0022049598954
          -0.003364886063 1.9457052568 0.0030688702527 -0.0039529576648 1.9453727325 0.0014573542319
          0.00047140930075 1.9380006692 -0.001344387591 -0.00075974603441 1.939144016 -0.0026209836259
          -0.0013621312095 1.9401360277 -0.0037351592387 -0.0011283916064 1.9394988772 -0.0033097766925
          -0.0011172044069 1.9392895019 -0.0030999600541 -0.0010226922033 1.9391415255 -0.0029896884652
          -0.0011340161875 1.9392966797 -0.0033264940524 -0.00085300930683 1.939841657 -0.0037625117346
          -0.0014493526447 1.9387298812 -0.0026655082656 -0.0027943123369 1.9373725175 -0.0013586155639
          -0.00096977213095 1.9400450816 -0.003417150526 -0.0010513687905 1.9392666838 -0.002540494125
          -0.0010984179036 1.9394674714 -0.0028731889252 -0.0011449396435 1.9389045673 -0.0024399301013
          -0.0010778033427 1.9385565625 -0.0023233566625 -0.0010236311629 1.9384204648 -0.0022330165184
          -0.00094749245579 1.9387157238 -0.0024416630664 -0.0010125700174 1.9391416954 -0.0028833407801
          -0.0010564493859 1.938807308 -0.0025434395559 -0.0011236818166 1.9395010237 -0.0034497497702
          -0.00067022889638 1.9398303154 -0.0034186161661 -0.00056256108412 1.9390727606 -0.0027666664633
          -0.0013072657815 1.93893905 -0.0022503514021 -0.0010494962573 1.9389061876 -0.002728043206
          -0.00099544169049 1.9387087812 -0.0027618702231 -0.00098239399412 1.9386360632 -0.0027434244921
          -0.00092484519079 1.9387106004 -0.0027312849989 -0.00066447140215 1.9386174008 -0.0022601674663
          -0.0013975413743 1.9386401341 -0.002773235924 -0.0013160801498 1.9392657933 -0.0034492143884
          -0.00059979417895 1.9395300049 -0.0033339351035 -0.00073942825666 1.9393461083 -0.0031617014369
          -0.00088889653271 1.9391161764 -0.0028789994494 -0.0009497779011 1.938909569 -0.0028400847275
          -0.00094196932288 1.9387007724 -0.0029210150601 -0.00090213248534 1.9386258192 -0.00291500495
          -0.00090552973959 1.9387102347 -0.0028377395286 -0.00096285451353 1.9387993842 -0.0028876007531
          -0.0011040267292 1.938908881 -0.0031620533412 -0.0012613545641 1.93898585 -0.0033673104887
          -0.0004274704095 1.9398193381 -0.0033999454466 -0.00050900976368 1.9393053914 -0.003035838504
          -0.00065910356893 1.9391902999 -0.003023219632 -0.00076493188426 1.9389306071 -0.0029857759205
          -0.00088430566336 1.9386930576 -0.0030921342483 -0.00081686494227 1.9386445463 -0.0031118619634
          -0.00096307329342 1.9387297551 -0.0029873041808 -0.0010683577969 1.9388679429 -0.0030325406285
          -0.0012118264101 1.9388674977 -0.0030378442099 -0.0013213787168 1.939261549 -0.0034280741483
          6.7835209921e-05 1.9395801164 -0.0034569646139 -0.00010068310239 1.9395495089 -0.0030965926903
          -0.00026545873034 1.9393254781 -0.0028609731791 -0.0002525814824 1.9390962346 -0.0027453547044
          -0.00093517996578 1.9386581622 -0.0033773662618 -0.00067883426548 1.9385777614 -0.0033812163871
          -0.0013481761516 1.9389039852 -0.0027535614902 -0.0013416808079 1.9390076661 -0.0028676243477
          -0.001505112379 1.9391146364 -0.0030963195951 -0.0017000328073 1.9390242544 -0.0034877913329
          0.00070852535797 1.9399590512 -0.0037723782807 0.00024863728918 1.9395136435 -0.003319852237
          -0.00014102912467 1.9393116265 -0.0029495821873 -0.00045528880658 1.9389230932 -0.0032068094856
          -6.8172181403e-05 1.9384743985 -0.003309262063 -0.0014330956966 1.9383952155 -0.0033024969182
          -0.0010224081166 1.9387243973 -0.0032143332842 -0.0013418505953 1.9389991693 -0.0029492293775
          -0.0017364317709 1.9390820362 -0.0033240038401 -0.0022258135632 1.9394012523 -0.0038142156632
          0.00095626235377 1.9393669903 -0.0041796092388 0.00039418909133 1.9398187289 -0.0030020626876
          0.00025696336389 1.9392885392 -0.003482111348 -6.2881614593e-06 1.9388394621 -0.0036638544279
          -0.0005430005623 1.9386907313 -0.0035197694772 -0.0008318210733 1.938613719 -0.0035116090712
          -0.0013607043777 1.9386375812 -0.0036665352187 -0.0016186022592 1.9389642101 -0.0034917163046
          -0.0017695737454 1.9393774991 -0.0030193285264 -0.0023639789515 1.9388253253 -0.0042229539096
          8.775411453e-05 1.9388551106 -0.0029814782612 0.00084312857388 1.9391061298 -0.0031627841449
          0.00062708288789 1.9395618149 -0.0023503430842 0.00046999182879 1.9388765426 -0.0027157779433
          0.0017545722249 1.9365659669 -0.0035531010922 -0.0030171281507 1.9364508846 -0.0035595850448
          -0.0017180026326 1.9386817964 -0.0027008976357 -0.0018814130902 1.9392531894 -0.002342099903
          -0.002118353378 1.9386800986 -0.0031627007358 -0.0012945339979 1.9381719241 -0.0030162315362
          0.0041058844757 1.9445319227 -0.0025578677467 -0.0022083379535 1.9379297896 -0.0036214582097
          0.00020153953094 1.9391404369 -0.0039313183964 0.002563311007 1.9380270872 -0.0039498667187
          5.1116482593e-05 1.9400471313 -0.00289570824 -0.0011371429435 1.9399501338 -0.0029011498102
          -0.0036630965247 1.9378398817 -0.003951978943 -0.0012791269139 1.9389013495 -0.0038931996276
          0.0012204768516 1.9374790053 -0.0036277620937 -0.0050887941886 1.9438974534 -0.002572291992
          -0.00080463461994 1.9391243491 -0.0031762099419 -0.0020102615709 1.9399182079 -0.0028136911911
          -0.0013880718434 1.9396411901 -0.0029143309087 -0.0011474163825 1.9388968421 -0.0022769260045
          -0.0011432984493 1.9386575936 -0.002127311064 -0.0010990499481 1.9385806418 -0.0020978529311
          -0.0010733667154 1.9387204782 -0.0022722462303 -0.00084384203754 1.9393399723 -0.0029206186568
          -0.00018326395599 1.9395015092 -0.002810568956 -0.0014033860954 1.9385834606 -0.0031987145339
          -0.0016538758974 1.940262193 -0.0028982949438 -0.001409911993 1.9393474233 -0.002436943002
          -0.0011468991417 1.9389060971 -0.0024743149489 -0.0010873033032 1.9389673478 -0.0026021649904
          -0.0010654082701 1.9388645821 -0.0026196099229 -0.0010378815005 1.938793131 -0.0026024492956
          -0.0010093081262 1.9387729104 -0.0025958807274 -0.00095338154273 1.9385821053 -0.0024707241744
          -0.00068818610439 1.9389196531 -0.0024453557507 -0.00042053986461 1.9397182579 -0.0029011452257
          -0.0010170630874 1.9397228338 -0.0028631883819 -0.0013681101331 1.9394836218 -0.0026460228069
          -0.0011030263724 1.9391957117 -0.0027177576718 -0.0010719098766 1.9389636417 -0.0027784336465
          -0.0010227106627 1.9387818731 -0.0027962495277 -0.00097565451384 1.9387191428 -0.0027694899096
          -0.00090615972175 1.9387648598 -0.0027752964853 -0.00087135195082 1.9388649552 -0.0027218619749
          -0.00060664203783 1.9390386716 -0.0026547341137 -0.00093654469848 1.9391865578 -0.0028739858783
          -0.0007203606672 1.93955988 -0.0030086071758 -0.00097499701906 1.9394525152 -0.002819852495
          -0.00090009747449 1.9392267554 -0.0028580341735 -0.00094999373684 1.9389749278 -0.0028081225833
          -0.00096294455892 1.9387090765 -0.0029212992107 -0.00087377662556 1.9386238957 -0.0029178089494
          -0.00090426969569 1.9387720852 -0.0028071037623 -0.00094989515279 1.9389032099 -0.0028616915467
          -0.00088183703215 1.9390108821 -0.0028253590618 -0.0011347319098 1.9389959541 -0.003005363415
          -0.000626820205 1.9395200098 -0.0030318415167 -0.00060062306345 1.9394957784 -0.0030372024521
          -0.00073424174024 1.9391976777 -0.0029797722051 -0.00075261141209 1.9389381481 -0.0029398933242
          -0.00084955631847 1.9387629554 -0.0029624385079 -0.00079421279553 1.9386911331 -0.0029614826617
          -0.00098444838209 1.9387577459 -0.0029381205704 -0.00099015990082 1.938878496 -0.0029785395438
          -0.0011361373598 1.9390595625 -0.0030405837838 -0.0011122055045 1.9389525771 -0.0030396970804
          -0.00034720582221 1.9397266215 -0.0031391562257 -0.00038588726575 1.9393793481 -0.0032277173912
          -0.00037472941149 1.9392576121 -0.003094457918 -0.00040726290693 1.9389581974 -0.0030334722979
          3.0682669493e-05 1.9388096247 -0.0029165097309 -0.0016280462962 1.9387287981 -0.0029348079432
          -0.0011859185604 1.9387718394 -0.0030356188139 -0.0012253278461 1.9389426093 -0.0030959274396
          -0.0012246068705 1.9389358866 -0.0032399106251 -0.0012622443983 1.9391682554 -0.0031501274339
          0.00010228872118 1.9397114883 -0.0035457926561 -0.00030888110584 1.9395142938 -0.0029553539979
          -3.9667379185e-05 1.9392902378 -0.0031451371795 0.00020881475957 1.9390057639 -0.0030396982014
          0.00013040178699 1.9387035177 -0.0029720027477 -0.0016083729733 1.9386264172 -0.0029818786827
          -0.0016830274279 1.9388098981 -0.003051044071 -0.0014408125127 1.9389740675 -0.003151185911
          -0.0011796872581 1.9390753085 -0.0029592593231 -0.0015909415806 1.9391535956 -0.0035497781783
          0.00030582295671 1.9401226379 -0.0033796395834 0.00046486872899 1.9396388804 -0.0031120373817
          1.5851968904e-05 1.9391878047 -0.0029799618827 -7.7204333714e-06 1.9389242254 -0.0030378776695
          -0.00061455330074 1.9390009415 -0.0037873783181 -0.00075151258604 1.9389124565 -0.0037920978863
          -0.0013447328955 1.938721681 -0.0030384490543 -0.0013655281062 1.9388667381 -0.0029740307328
          -0.0018189168574 1.9392006103 -0.0030981051466 -0.0016790351805 1.9395692077 -0.0033863495569
          -0.00024252838898 1.9382162282 -0.0034321871666 0.00047478940514 1.9397612779 -0.0028875355994
          0.00091219557697 1.9391065018 -0.003470416916 -0.00018305452881 1.9391867447 -0.0033112029865
          0.00041217990689 1.9379946537 -0.0034251233492 -0.0016593453881 1.9379249059 -0.0034276850333
          -0.0010786276908 1.9389751649 -0.0033276592168 -0.0021510310582 1.9387855096 -0.0034922510365
          -0.0017148611923 1.939340629 -0.0029014518526 -0.00097064926643 1.9376424322 -0.0034308283224
          0.0024028224121 1.9405514806 -0.0034552984381 -0.0023122367409 1.9381389311 -0.0022548990247
          0.0017656418758 1.9403578282 -0.0022745035242 0.00082168417876 1.9397696126 -0.0022259483629
          0.0035996081415 1.9358376105 -0.0037326138674 -0.0047485718182 1.9357238557 -0.0037517239124
          -0.0018850725113 1.939542616 -0.0022356008144 -0.0028982387938 1.939939909 -0.0023281569176
          0.0011031979738 1.9376493549 -0.0022657871348 -0.0033034290708 1.9396920794 -0.0034357890495
          -0.0010559126096 1.9390716111 -0.0026407843286 -0.0019487229131 1.9396898775 -0.0026146787542
          -0.00094410768273 1.9389638305 -0.0023854285558 -0.0011342829828 1.9390220005 -0.0024608815332
          -0.001163781332 1.9390190594 -0.0025302977375 -0.0010842685618 1.9389429052 -0.0025284936638
          -0.0010906960586 1.9388418819 -0.0024442440556 -0.0012783884255 1.9386617052 -0.0023754680323
          -0.00025719686063 1.9392761115 -0.0026169372988 -0.0011313190568 1.938540406 -0.0026411522702
          -0.0016177953767 1.9400623045 -0.0027239822538 -0.0010057194646 1.9390768288 -0.0025370890927
          -0.0012307027417 1.939319613 -0.0026556507073 -0.001157626166 1.9390572955 -0.002675289524
          -0.0010886175445 1.9388816565 -0.002663080599 -0.00099802440252 1.9388171477 -0.0026746972438
          -0.00094851679598 1.9388620465 -0.0026695528942 -0.00086659434657 1.9390003678 -0.0026526621412
          -0.0010759213845 1.9386522073 -0.0025380275934 -0.00045850470916 1.9395245211 -0.0027355938916
          -0.0010127093871 1.9396433098 -0.0027386120723 -0.0013063559385 1.939597368 -0.0027420286139
          -0.0011171975388 1.9392217136 -0.0027594279529 -0.0010476533028 1.9390460979 -0.0027472399456
          -0.001046716576 1.9388956445 -0.002756658709 -0.00094690384113 1.9388207245 -0.0027593408619
          -0.0009371395679 1.9388480588 -0.0027420929317 -0.00086081177177 1.9388899752 -0.0027569104421
          -0.00066803948257 1.9391467553 -0.0027452762969 -0.00093883201018 1.9391018823 -0.0027419732669
          -0.0008691830461 1.9396897028 -0.0028727675825 -0.00098333000253 1.9395611905 -0.002893021332
          -0.00095164159229 1.939278744 -0.0028831556333 -0.0010036125799 1.939034359 -0.0029110615065
          -0.0009861710721 1.9388491816 -0.0028627163215 -0.00089188308544 1.9387879859 -0.0028490220012
          -0.00085680748161 1.9388393191 -0.0029086103648 -0.00089857965175 1.9389571445 -0.002882936745
          -0.00087511580843 1.9391182781 -0.0028953312045 -0.00099881592831 1.9391229873 -0.0028782724599