<?xml version="1.0"?>
<VTKFile type="UnstructuredGrid" version="0.1" byte_order="LittleEndian" compressor="vtkZLibDataCompressor">
  <UnstructuredGrid>
    <FieldData>
      <DataArray type="Float64" Name="TIME" NumberOfTuples="1" format="ascii" RangeMin="0.27877036289" RangeMax="0.27877036289">
        0.27877036289
      </DataArray>
    </FieldData>
    <Piece NumberOfPoints="1000" NumberOfCells="0">
      <PointData>
        <DataArray type="Float64" Name="Damage" format="ascii" RangeMin="0" RangeMax="0.49719101124">
          0 0 0 0 0 0
          0 0 0 0 0 0.027932960894
          0 0 0 0 0 0
          0.027932960894 0 0 0.055084745763 0.071428571429 0.040345821326
          0.014164305949 0.012987012987 0.040345821326 0.071428571429 0.055084745763 0
          0 0.067669172932 0.11239193084 0.1074168798 0.037688442211 0.034562211982
          0.1074168798 0.11239193084 0.067669172932 0 0 0.074349442379
          0.16147308782 0.16834170854 0.12376237624 0.11286681716 0.16834170854 0.16147308782
          0.074349442379 0 0 0.084459459459 0.2 0.25806451613
          0.33860045147 0.39211618257 0.25806451613 0.2 0.084459459459 0
          0 0.093984962406 0.25360230548 0.36061381074 0.41959798995 0.46774193548
          0.36061381074 0.25360230548 0.093984962406 0 0 0.10593220339
          0.31493506494 0.40057636888 0.4447592068 0.49090909091 0.40057636888 0.31493506494
          0.10593220339 0 0 0.16759776536 0.3686440678 0.43984962406
          0.44609665428 0.49662162162 0.43984962406 0.3686440678 0.16759776536 0
          0 0.1677852349 0.36734693878 0.43891402715 0.44642857143 0.49593495935
          0.43891402715 0.36734693878 0.1677852349 0 0 0
          0 0 0 0 0 0
          0 0 0 0.027906976744 0 0
          0 0 0 0 0.027906976744 0
          0 0.056338028169 0.072776280323 0.040669856459 0.014117647059 0.012931034483
          0.040669856459 0.072776280323 0.056338028169 0 0 0.06875
          0.11483253589 0.10828025478 0.0375782881 0.034416826004 0.10828025478 0.11483253589
          0.06875 0 0 0.074303405573 0.16235294118 0.16910229645
          0.12371134021 0.11257035647 0.16910229645 0.16235294118 0.074303405573 0
          0 0.084269662921 0.20043103448 0.25812619503 0.33771106942 0.39242685026
          0.25812619503 0.20043103448 0.084269662921 0 0 0.09375
          0.25358851675 0.36093418259 0.41962421712 0.46845124283 0.36093418259 0.25358851675
          0.09375 0 0 0.10563380282 0.3153638814 0.4019138756
          0.44470588235 0.49137931034 0.4019138756 0.3153638814 0.10563380282 0
          0 0.16744186047 0.36971830986 0.440625 0.44582043344 0.49719101124
          0.440625 0.36971830986 0.16744186047 0 0 0.16759776536
          0.3686440678 0.43984962406 0.44609665428 0.49662162162 0.43984962406 0.3686440678
          0.16759776536 0 0 0 0 0
          0 0 0 0 0 0
          0 0.024647887324 0 0 0 0
          0 0 0.024647887324 0 0 0.051212938005
          0.06875 0.038817005545 0.012635379061 0.011666666667 0.038817005545 0.06875
          0.051212938005 0 0 0.064593301435 0.10905730129 0.10491803279
          0.036858974359 0.034023668639 0.10491803279 0.10905730129 0.064593301435 0
          0 0.070588235294 0.15523465704 0.16506410256 0.12283464567 0.11271676301
          0.16506410256 0.15523465704 0.070588235294 0 0 0.081896551724
          0.19333333333 0.25443786982 0.33959537572 0.38985313752 0.25443786982 0.19333333333
          0.081896551724 0 0 0.093301435407 0.24768946396 0.35573770492
          0.41987179487 0.46449704142 0.35573770492 0.24768946396 0.093301435407 0
          0 0.10781671159 0.30833333333 0.39556377079 0.4440433213 0.48666666667
          0.39556377079 0.30833333333 0.10781671159 0 0 0.16197183099
          0.35579514825 0.43062200957 0.44470588235 0.49137931034 0.43062200957 0.35579514825
          0.16197183099 0 0 0.16101694915 0.3538961039 0.42939481268
          0.4447592068 0.49090909091 0.42939481268 0.3538961039 0.16101694915 0
          0 0 0 0 0 0
          0 0 0 0 0 0.025
          0 0 0 0 0 0
          0.025 0 0 0.05023923445 0.068391866913 0.039344262295
          0.012820512821 0.011834319527 0.039344262295 0.068391866913 0.05023923445 0
          0 0.063694267516 0.10819672131 0.10465116279 0.036984352774 0.034120734908
          0.10465116279 0.10819672131 0.063694267516 0 0 0.070981210856
          0.15544871795 0.16500711238 0.12290502793 0.11282051282 0.16500711238 0.15544871795
          0.070981210856 0 0 0.082217973231 0.19378698225 0.25459317585
          0.33974358974 0.38981042654 0.25459317585 0.19378698225 0.082217973231 0
          0 0.093418259023 0.24918032787 0.35610465116 0.41963015647 0.46456692913
          0.35610465116 0.24918032787 0.093418259023 0 0 0.10765550239
          0.30868761553 0.39508196721 0.44391025641 0.48668639053 0.39508196721 0.30868761553
          0.10765550239 0 0 0.1625 0.35645933014 0.43099787686
          0.44467640919 0.4913957935 0.43099787686 0.35645933014 0.1625 0
          0 0.16165413534 0.35446685879 0.42966751918 0.44472361809 0.49078341014
          0.42966751918 0.35446685879 0.16165413534 0 0 0
          0 0 0 0 0 0
          0 0 0 0.02786377709 0 0
          0 0 0 0 0.02786377709 0
          0 0.054117647059 0.070397111913 0.040064102564 0.014173228346 0.013005780347
          0.040064102564 0.070397111913 0.054117647059 0 0 0.066805845511
          0.11057692308 0.106685633 0.037709497207 0.034615384615 0.106685633 0.11057692308
          0.066805845511 0 0 0.074226804124 0.16062992126 0.16759776536
          0.12362637363 0.11292346299 0.16759776536 0.16062992126 0.074226804124 0
          0 0.084427767355 0.19942196532 0.25769230769 0.33877038896 0.39145496536
          0.25769230769 0.19942196532 0.084427767355 0 0 0.093945720251
          0.25320512821 0.35988620199 0.41899441341 0.46666666667 0.35988620199 0.25320512821
          0.093945720251 0 0 0.10588235294 0.31407942238 0.39903846154
          0.44409448819 0.48988439306 0.39903846154 0.31407942238 0.10588235294 0
          0 0.16718266254 0.36705882353 0.43841336117 0.44536082474 0.49530956848
          0.43841336117 0.36705882353 0.16718266254 0 0 0.16728624535
          0.36543909348 0.43718592965 0.44554455446 0.49435665914 0.43718592965 0.36543909348
          0.16728624535 0 0 0 0 0
          0 0 0 0 0 0
          0 0.025280898876 0 0 0 0
          0 0 0.025280898876 0 0 0.049568965517
          0.066666666667 0.038461538462 0.013005780347 0.012016021362 0.038461538462 0.066666666667
          0.049568965517 0 0 0.06309751434 0.1050295858 0.10367454068
          0.037179487179 0.034360189573 0.10367454068 0.1050295858 0.06309751434 0
          0 0.071294559099 0.15462427746 0.1641025641 0.12296110414 0.11316397229
          0.1641025641 0.15462427746 0.071294559099 0 0 0.082616179002
          0.19359145527 0.25473933649 0.34064665127 0.38930481283 0.25473933649 0.19359145527
          0.082616179002 0 0 0.093690248566 0.24852071006 0.35564304462
          0.41923076923 0.46327014218 0.35564304462 0.24852071006 0.093690248566 0
          0 0.10775862069 0.30833333333 0.39349112426 0.4436416185 0.48598130841
          0.39349112426 0.30833333333 0.10775862069 0 0 0.16292134831
          0.35560344828 0.43021032505 0.44465290807 0.49053356282 0.43021032505 0.35560344828
          0.16292134831 0 0 0.16216216216 0.35324675325 0.42857142857
          0.44469525959 0.48962655602 0.42857142857 0.35324675325 0.16216216216 0
          0 0 0 0 0 0
          0 0 0 0 0 0.025
          0 0 0 0 0 0
          0.025 0 0 0.05023923445 0.068391866913 0.039344262295
          0.012820512821 0.011834319527 0.039344262295 0.068391866913 0.05023923445 0
          0 0.063694267516 0.10819672131 0.10465116279 0.036984352774 0.034120734908
          0.10465116279 0.10819672131 0.063694267516 0 0 0.070981210856
          0.15544871795 0.16500711238 0.12290502793 0.11282051282 0.16500711238 0.15544871795
          0.070981210856 0 0 0.082217973231 0.19378698225 0.25459317585
          0.33974358974 0.38981042654 0.25459317585 0.19378698225 0.082217973231 0
          0 0.093418259023 0.24918032787 0.35610465116 0.41963015647 0.46456692913
          0.35610465116 0.24918032787 0.093418259023 0 0 0.10765550239
          0.30868761553 0.39508196721 0.44391025641 0.48668639053 0.39508196721 0.30868761553
          0.10765550239 0 0 0.1625 0.35645933014 0.43099787686
          0.44467640919 0.4913957935 0.43099787686 0.35645933014 0.1625 0
          0 0.16165413534 0.35446685879 0.42966751918 0.44472361809 0.49078341014
          0.42966751918 0.35446685879 0.16165413534 0 0 0
          0 0 0 0 0 0
          0 0 0 0.024647887324 0 0
          0 0 0 0 0.024647887324 0
          0 0.051212938005 0.06875 0.038817005545 0.012635379061 0.011666666667
          0.038817005545 0.06875 0.051212938005 0 0 0.064593301435
          0.10905730129 0.10491803279 0.036858974359 0.034023668639 0.10491803279 0.10905730129
          0.064593301435 0 0 0.070588235294 0.15523465704 0.16506410256
          0.12283464567 0.11271676301 0.16506410256 0.15523465704 0.070588235294 0
          0 0.081896551724 0.19333333333 0.25443786982 0.33959537572 0.38985313752
          0.25443786982 0.19333333333 0.081896551724 0 0 0.093301435407
          0.24768946396 0.35573770492 0.41987179487 0.46449704142 0.35573770492 0.24768946396
          0.093301435407 0 0 0.10781671159 0.30833333333 0.39556377079
          0.4440433213 0.48666666667 0.39556377079 0.30833333333 0.10781671159 0
          0 0.16197183099 0.35579514825 0.43062200957 0.44470588235 0.49137931034
          0.43062200957 0.35579514825 0.16197183099 0 0 0.16101694915
          0.3538961039 0.42939481268 0.4447592068 0.49090909091 0.42939481268 0.3538961039
          0.16101694915 0 0 0 0 0
          0 0 0 0 0 0
          0 0.027906976744 0 0 0 0
          0 0 0.027906976744 0 0 0.056338028169
          0.072776280323 0.040669856459 0.014117647059 0.012931034483 0.040669856459 0.072776280323
          0.056338028169 0 0 0.06875 0.11483253589 0.10828025478
          0.0375782881 0.034416826004 0.10828025478 0.11483253589 0.06875 0
          0 0.074303405573 0.16235294118 0.16910229645 0.12371134021 0.11257035647
          0.16910229645 0.16235294118 0.074303405573 0 0 0.084269662921
          0.20043103448 0.25812619503 0.33771106942 0.39242685026 0.25812619503 0.20043103448
          0.084269662921 0 0 0.09375 0.25358851675 0.36093418259
          0.41962421712 0.46845124283 0.36093418259 0.25358851675 0.09375 0
          0 0.10563380282 0.3153638814 0.4019138756 0.44470588235 0.49137931034
          0.4019138756 0.3153638814 0.10563380282 0 0 0.16744186047
          0.36971830986 0.440625 0.44582043344 0.49719101124 0.440625 0.36971830986
          0.16744186047 0 0 0.16759776536 0.3686440678 0.43984962406
          0.44609665428 0.49662162162 0.43984962406 0.3686440678 0.16759776536 0
          0 0 0 0 0 0
          0 0 0 0 0 0.027932960894
          0 0 0 0 0 0
          0.027932960894 0 0 0.055084745763 0.071428571429 0.040345821326
          0.014164305949 0.012987012987 0.040345821326 0.071428571429 0.055084745763 0
          0 0.067669172932 0.11239193084 0.1074168798 0.037688442211 0.034562211982
          0.1074168798 0.11239193084 0.067669172932 0 0 0.074349442379
          0.16147308782 0.16834170854 0.12376237624 0.11286681716 0.16834170854 0.16147308782
          0.074349442379 0 0 0.084459459459 0.2 0.25806451613
          0.33860045147 0.39211618257 0.25806451613 0.2 0.084459459459 0
          0 0.093984962406 0.25360230548 0.36061381074 0.41959798995 0.46774193548
          0.36061381074 0.25360230548 0.093984962406 0 0 0.10593220339
          0.31493506494 0.40057636888 0.4447592068 0.49090909091 0.40057636888 0.31493506494
          0.10593220339 0 0 0.16759776536 0.3686440678 0.43984962406
          0.44609665428 0.49662162162 0.43984962406 0.3686440678 0.16759776536 0
          0 0.1677852349 0.36734693878 0.43891402715 0.44642857143 0.49593495935
          0.43891402715 0.36734693878 0.1677852349 0
        </DataArray>
        <DataArray type="Float64" Name="Displacement" NumberOfComponents="3" format="ascii" RangeMin="1.313288128" RangeMax="1.3378129129">
          -0.0046637840923 1.317069454 -0.018550253578 -0.0072859858391 1.3249296003 -0.022776292586
          -0.0084302229501 1.321853658 -0.019215727345 -0.0077424410341 1.3228711579 -0.020323834104
          -0.008030958284 1.3220121989 -0.019760621308 -0.0082733737635 1.3217846599 -0.019463168351
          -0.0086417442714 1.321482873 -0.020196600511 -0.0078920093423 1.3198519805 -0.019165993233
          -0.0090728607475 1.322144762 -0.022659190575 -0.011893886006 1.3131012258 -0.018692607643
          -0.0062878396517 1.3230660489 -0.022623624431 -0.0081208908168 1.3245303127 -0.02153307959
          -0.0076455717284 1.3226030847 -0.020821141545 -0.0081491252359 1.3214866181 -0.019776808931
          -0.0079271792264 1.3211952137 -0.020259810799 -0.0079638690856 1.3209696291 -0.020190664318
          -0.0072561478639 1.3203746344 -0.019846573938 -0.0078848566809 1.3204615327 -0.020704298556
          -0.0073554087576 1.3215727644 -0.021367084045 -0.0093166544758 1.3193676345 -0.022542833135
          -0.0066103738712 1.3231330399 -0.022064000257 -0.0080339138415 1.322756592 -0.020832614367
          -0.0064806697028 1.3223865999 -0.021840454782 -0.0074548041601 1.3219790589 -0.021090182188
          -0.0073859504241 1.3212267498 -0.020772840396 -0.00727831081 1.3201626893 -0.02022462067
          -0.0074392385031 1.320619808 -0.021062520334 -0.0081959062302 1.3203683633 -0.021808999151
          -0.0066385285016 1.319827693 -0.020830345883 -0.008122613988 1.3194581176 -0.022086421043
          -0.0064621226555 1.3221973163 -0.022466452709 -0.0070482173545 1.3228104993 -0.02130889573
          -0.0069104956061 1.3229274035 -0.022202674828 -0.0073031135416 1.32236058 -0.02204760512
          -0.0068133383383 1.3220334706 -0.022041943957 -0.0070547276088 1.3215397296 -0.022223204266
          -0.0064265676072 1.320903714 -0.021919306948 -0.0070339879372 1.3207293989 -0.022145130298
          -0.0068717464735 1.3198599383 -0.021253551685 -0.0074025465418 1.3184512346 -0.022414192957
          -0.0068695011521 1.3240048491 -0.022911978661 -0.0068026463224 1.3232085474 -0.022736042568
          -0.0070895470506 1.3224554665 -0.022742110292 -0.0069207334772 1.3221824154 -0.02269673164
          -0.0068094194296 1.3220339264 -0.02237869404 -0.0062435606793 1.3215572022 -0.022573080988
          -0.0061965876261 1.3209688974 -0.022634524745 -0.0059665695094 1.3202748582 -0.022703667753
          -0.0062377120584 1.3203639784 -0.022734442647 -0.0061297165958 1.3203121147 -0.022907062986
          -0.006785777426 1.3220960377 -0.023635294497 -0.0060615808854 1.3227406438 -0.023110069034
          -0.0066153167916 1.3227237933 -0.023146911842 -0.0063711475629 1.3224681692 -0.022839318782
          -0.005540570564 1.3217690934 -0.02195894092 -0.0066132205965 1.3215299532 -0.021751727985
          -0.0058619264594 1.321383798 -0.022869983919 -0.0056461629127 1.3205525487 -0.023233520795
          -0.0061855355619 1.3198892833 -0.023065792195 -0.0053422875185 1.318340329 -0.023573092395
          -0.0065809048849 1.3232111899 -0.023817403463 -0.0053267369325 1.3227617408 -0.024030706041
          -0.0061124879169 1.3221619557 -0.02407201236 -0.0051638497862 1.3220681839 -0.023936167027
          -0.0031271618977 1.3212632467 -0.022149914795 -0.008265342875 1.3207650986 -0.022042804065
          -0.0062443602278 1.320799273 -0.023930426024 -0.0052643309525 1.3201244397 -0.024149005373
          -0.0060281081609 1.3197988014 -0.024028489436 -0.0047812355251 1.3194284885 -0.023826141716
          -0.0042739270653 1.3248916314 -0.025907984224 -0.0071838830587 1.3227778059 -0.023916014267
          -0.0075637845518 1.3225634212 -0.024573228721 -0.0067169706494 1.3220336597 -0.025195671149
          -0.0020833930548 1.3213945186 -0.022202389333 -0.0084272750772 1.3210218176 -0.022245945678
          -0.0036977494424 1.3207595988 -0.025216030129 -0.0028651702109 1.3204360955 -0.024528330727
          -0.0032829443127 1.3197547313 -0.02388515415 -0.0061032693936 1.3211736365 -0.025789297873
          -0.0018685565243 1.3245892749 -0.027414963591 -0.0060601763387 1.3226578154 -0.024130839091
          -0.0051847085156 1.3229574197 -0.024964722975 -0.0095180361039 1.3210931915 -0.026791964949
          -0.0076789651707 1.3213700904 -0.02505268773 -0.0021241883754 1.3208802822 -0.025186269874
          -5.2898340984e-05 1.3198531403 -0.026942668814 -0.0044874857728 1.3208808891 -0.02500759821
          -0.0035842103207 1.319644036 -0.024158238176 -0.0080117169124 1.3207879086 -0.027597903862
          0.00019355260307 1.3318190787 -0.021345102637 -0.0069622536913 1.3260289352 -0.023552702665
          -0.0040448653429 1.3230731646 -0.025367211348 -0.0066223349752 1.322205898 -0.026397311566
          -0.015315245687 1.3242960106 -0.028511493061 0.0065802772791 1.3235814111 -0.028728352691
          -0.0021639274465 1.3208976827 -0.026416661068 -0.0047516846081 1.3210715581 -0.025240247342
          -0.001663609113 1.3232003216 -0.02325248363 -0.0088945250441 1.3281194186 -0.021112570703
          -0.0071105426924 1.3233444501 -0.02099756652 -0.0091856042371 1.3246770798 -0.020599726569
          -0.0084173147774 1.3237142522 -0.02003361446 -0.0084641120358 1.322354127 -0.019197081236
          -0.0082372329097 1.3221516409 -0.019039859546 -0.0083071519149 1.3215677937 -0.019196803507
          -0.0077478827062 1.3212592605 -0.019241020922 -0.0080015912881 1.321598832 -0.019885607242
          -0.0071299280108 1.3217639865 -0.020475704568 -0.0092410559889 1.3195655672 -0.02090192671
          -0.0080184638016 1.3242022177 -0.020539568614 -0.0080908104328 1.3236859651 -0.020953123785
          -0.0074601198064 1.3233487053 -0.020824777283 -0.007553395745 1.3228965302 -0.02081171425
          -0.0077277470663 1.3230568193 -0.021078559514 -0.0078500197347 1.3227033617 -0.021025818283
          -0.0079916333652 1.3217335205 -0.020881598966 -0.0080055148443 1.3213632847 -0.020817021024
          -0.007446402744 1.3208398856 -0.020984549299 -0.0074771049639 1.3204410302 -0.020429942364
          -0.0077060569281 1.3243061107 -0.020786270809 -0.0071842814174 1.3239681262 -0.02164388764
          -0.0075220366707 1.3234839441 -0.021388210056 -0.007435941816 1.3233136913 -0.021322021798
          -0.0074008037066 1.3229608026 -0.021368212805 -0.0073174397334 1.3226246798 -0.02141053416
          -0.0072552545895 1.3220735018 -0.021350198023 -0.007238026871 1.3214421958 -0.021401910613
          -0.0075302789771 1.3210939663 -0.021631537787 -0.0069730302036 1.3205481103 -0.020761378097
          -0.0073870310384 1.3247540625 -0.021614665136 -0.0072383129739 1.3237631433 -0.021853191101
          -0.00688364777 1.3235159373 -0.022078375444 -0.0065140769048 1.3236891543 -0.022853754139
          -0.00690933574 1.3229386268 -0.021896228093 -0.0069779279855 1.322498837 -0.02178823172
          -0.0073658939701 1.3224600994 -0.022872249974 -0.0069838472656 1.3214626754 -0.022049930234
          -0.006641399322 1.3208421785 -0.02182702033 -0.0064690513942 1.320985059 -0.021665633558
          -0.0070604352478 1.3233095511 -0.022483766984 -0.0068795884434 1.3236236132 -0.022502935767
          -0.0062802168025 1.3235738 -0.022824922703 -0.0067108983904 1.3232052263 -0.022212777621
          -0.0064714153932 1.323029005 -0.022340174697 -0.0065839051767 1.3227148539 -0.022311453118
          -0.0063520302574 1.3219568966 -0.022218701435 -0.0068104650758 1.32150349 -0.022789444527
          -0.0061946021543 1.3206616403 -0.022441050755 -0.0060489612169 1.3196441302 -0.022504326321
          -0.0068215294602 1.3244408687 -0.022589897948 -0.0062022182994 1.3239577924 -0.023166990725
          -0.0071103644695 1.3232701113 -0.022813100655 -0.0064092982658 1.3231298604 -0.023051237449
          -0.0060487659938 1.3230035391 -0.02276332175 -0.0062024697076 1.3226733115 -0.022744798777
          -0.0057204479493 1.3218582221 -0.023044606578 -0.0050796189554 1.3211697272 -0.02281245055
          -0.0059920237466 1.3210432881 -0.023115173252 -0.00540089541 1.3206297682 -0.022616878213
          -0.0060133116446 1.324374867 -0.023676414542 -0.0058375474252 1.324091939 -0.024052942861
          -0.0055414917849 1.323489149 -0.023846297406 -0.007670282878 1.3229262184 -0.02471346833
          -0.0063209675118 1.3231185098 -0.02378896097 -0.0049936943347 1.3228126036 -0.023660137126
          -0.0037167147714 1.3216780592 -0.024686569657 -0.0058070550388 1.3214105553 -0.023850373633
          -0.0054922100914 1.3211540392 -0.024025617723 -0.0053080136433 1.320609698 -0.023656038744
          -0.0048479651016 1.3238005262 -0.026373076159 -0.0057111504884 1.3242083252 -0.02391885209
          -0.0065381808676 1.3229714249 -0.02452963768 -0.0065790408761 1.3230390655 -0.024879968515
          -0.0061347162631 1.322445314 -0.025022044423 -0.0043958244794 1.3220229447 -0.025109159109
          -0.0039853219934 1.3217832907 -0.02492430736 -0.0040738169656 1.3208592521 -0.024556170234
          -0.0047883036351 1.3212436671 -0.023899510913 -0.0057519586805 1.3200075863 -0.026347281155
          -0.0086855389442 1.3233192317 -0.02202163127 -0.006256492465 1.3234958659 -0.0251244582
          -0.0060762937757 1.3230601975 -0.025155690015 -0.0067443841326 1.3221288511 -0.025804273646
          -0.0065785126278 1.3232891618 -0.024880316355 -0.0031247567894 1.3228458075 -0.024905760772
          -0.0029625346651 1.3208395571 -0.025831247269 -0.0035841317169 1.3209425024 -0.025109461387
          -0.003437633862 1.3205430105 -0.025101628254 -0.00091658079722 1.3194245639 -0.02191082969
          -0.0068833639726 1.3252192574 -0.023921317772 -0.0038716840092 1.3262640331 -0.024523571321
          -0.005275716763 1.3227411296 -0.026448821223 -0.0079845897399 1.3223471975 -0.027523277801
          -0.0029326959393 1.3235852185 -0.023773272509 -0.0058340278427 1.3233200863 -0.023779246662
          -0.00079286010382 1.3210393321 -0.027484352618 -0.0036367802243 1.3206135856 -0.026425550596
          -0.0050151548082 1.3234635435 -0.024244309925 -0.0018062637122 1.3212659471 -0.023759895343
          -0.0080195835859 1.3250520517 -0.020001719541 -0.007329426233 1.3242550328 -0.020256007183
          -0.0077139767887 1.3237883378 -0.020128240634 -0.0080256597148 1.323178613 -0.019269120291
          -0.0081944878491 1.3234820297 -0.020307743058 -0.0081860079524 1.3229948527 -0.019978791236
          -0.0084123480781 1.3218663879 -0.01924166618 -0.0086006930419 1.3217312901 -0.020064123704
          -0.0089656534464 1.3214032659 -0.020228230867 -0.008405238983 1.3212401797 -0.019926722195
          -0.0076546347966 1.3247857919 -0.020689243623 -0.007499368795 1.3245107777 -0.021178371667
          -0.0077852896833 1.3241967069 -0.020730818065 -0.0077100316451 1.3239605262 -0.020951480251
          -0.0077533640226 1.3234079618 -0.020784308697 -0.0077945300419 1.3229980221 -0.020747807955
          -0.0078603474257 1.3226991047 -0.020958951962 -0.0077587511058 1.322120981 -0.020686473566
          -0.0080313990737 1.3216065794 -0.021128649457 -0.0078315114926 1.3211676609 -0.020623943513
          -0.0071223718485 1.32450832 -0.021394107732 -0.0081566842812 1.3248527522 -0.021030399931
          -0.0072579102242 1.3242529791 -0.021604656154 -0.0073665425214 1.3239073231 -0.021515000384
          -0.0073251770793 1.3235703315 -0.02146129588 -0.0074550858851 1.3232078321 -0.02137170798
          -0.0073322843759 1.3226658382 -0.021479980002 -0.0074160547379 1.3221506539 -0.021547448846
          -0.0065550768421 1.3219422484 -0.020999477215 -0.0076293317115 1.3208092274 -0.021327774875
          -0.0070214467821 1.32485471 -0.021946003603 -0.0067406646259 1.3243318341 -0.022058533621
          -0.0069282580262 1.3241505286 -0.022056484483 -0.0069628368337 1.3238715651 -0.022044024056
          -0.0068668067755 1.32366529 -0.02196172895 -0.0068765428217 1.3231882659 -0.021941302789
          -0.0068946368139 1.3226541425 -0.022035565902 -0.0069160841025 1.3220470245 -0.022031572195
          -0.0070670803134 1.3214255834 -0.021994396241 -0.0068933035764 1.3211033791 -0.021910336651
          -0.0064921715445 1.3244716207 -0.022801087556 -0.0066757835723 1.3243832015 -0.022632710644
          -0.0068527099246 1.3240581052 -0.022527085103 -0.0066481477957 1.3238572219 -0.022573033504
          -0.0066084940047 1.3235550206 -0.022509438182 -0.0065060811388 1.3231938504 -0.02250955802
          -0.0063665491189 1.3226538759 -0.022578783915 -0.0062194774705 1.3219684782 -0.022499466408
          -0.0063699309503 1.3214644584 -0.022605700078 -0.0065456918028 1.3207452948 -0.022694582798
          -0.0060715653438 1.324702608 -0.02372115297 -0.0063129111788 1.3243972174 -0.023173734004
          -0.0064122597879 1.3240909971 -0.023144809713 -0.0063246414772 1.3238452939 -0.023130550589
          -0.0065280665929 1.3236589638 -0.02302569492 -0.0057029575406 1.3232199556 -0.023047267299
          -0.005859942237 1.3225020772 -0.023102423459 -0.0058501727036 1.3219888137 -0.023112980953
          -0.0059176245344 1.3214663784 -0.023154100208 -0.0061368151643 1.3209473107 -0.02365550455
          -0.0060328408959 1.3247730285 -0.024195972407 -0.0069126523052 1.3240971233 -0.023627508723
          -0.0061730309671 1.3240805533 -0.02369683779 -0.0059022526363 1.323843783 -0.023778918588
          -0.0062169000926 1.3235538802 -0.023845969967 -0.0051632661443 1.3231497182 -0.023774420821
          -0.0054198863791 1.3225853727 -0.023755328115 -0.0052267088303 1.321992342 -0.023660868989
          -0.0044759948292 1.3211627458 -0.023618718751 -0.0053801771534 1.3210120977 -0.024141245705
          -0.0061677332596 1.3242817932 -0.024774432118 -0.0062074078456 1.3242946021 -0.024238696529
          -0.0053872117465 1.3241049965 -0.024360061983 -0.0058067115651 1.3242091947 -0.024028838984
          -0.0057751235313 1.3236942186 -0.024149913996 -0.0047815173663 1.323323204 -0.02412527134
          -0.0047397551838 1.322936006 -0.024041920596 -0.0051418153412 1.3219978868 -0.024362407172
          -0.0043704706668 1.3213747577 -0.024240550057 -0.0043617927781 1.3204695308 -0.024710147007
          -0.0068479573053 1.3232962736 -0.025507174589 -0.0058230668715 1.3246786483 -0.025084186386
          -0.0061266922725 1.3242938704 -0.024732251263 -0.0067195094759 1.3240761661 -0.025202757289
          -0.0052587494975 1.3236607141 -0.02511501909 -0.0043957729697 1.323223509 -0.025140103095
          -0.0029776337215 1.322822926 -0.025196722311 -0.0035224556378 1.322177347 -0.024726895444
          -0.0038922985849 1.3217499571 -0.025052931101 -0.0027957640002 1.3194237564 -0.025454366354
          -0.0017064157867 1.3293527056 -0.025835129098 -0.0059347582385 1.3235556535 -0.026344091797
          -0.0027143234987 1.3222907944 -0.027864407962 -0.003618968317 1.3222786697 -0.027362150457
          -0.0085678133959 1.325661749 -0.02690090901 -0.00011612309964 1.3253333511 -0.026899277695
          -0.0053198811951 1.3210110894 -0.027383212619 -0.0061889575958 1.3202011786 -0.027786264566
          -0.0029084156565 1.3205825224 -0.026346838911 -0.0070958430004 1.3255127493 -0.025751731073
          -0.008976049611 1.3260603991 -0.019711255843 -0.0073421802034 1.3242205473 -0.019815461133
          -0.0079546134748 1.3250771071 -0.020714883066 -0.0078821338292 1.3241687262 -0.019849031909
          -0.0081009020713 1.324190792 -0.020229043013 -0.0081228374598 1.323817112 -0.020060526293
          -0.008478173036 1.3229289542 -0.019838743976 -0.0084056867895 1.323057017 -0.020733139629
          -0.0090986086612 1.3213570668 -0.019735105348 -0.0074936971607 1.3222328015 -0.019689444364
          -0.0070434088062 1.3248108691 -0.02041112223 -0.0078716175225 1.3252965142 -0.020768074441
          -0.0076485223883 1.3248501087 -0.020921227899 -0.0077814347779 1.3246773525 -0.020863206747
          -0.0077942240938 1.3242722212 -0.020900499396 -0.0077476967965 1.3238777141 -0.02087114294
          -0.0077770501725 1.3234463971 -0.020864683126 -0.0078684711761 1.3227875754 -0.020902319834
          -0.0076253112799 1.3224426341 -0.020729140021 -0.0084628889978 1.321012945 -0.020353573857
          -0.0072326425169 1.325146549 -0.021220912602 -0.0072727072041 1.3251351414 -0.021439535568
          -0.0074036928698 1.3247895954 -0.021522210064 -0.0072756096136 1.3245732587 -0.021477299798
          -0.0073194843906 1.3242660378 -0.021358493359 -0.0073348101305 1.3238210675 -0.021390306429
          -0.0073927881548 1.3233111306 -0.021465956053 -0.0073218636918 1.3227014038 -0.021522231139
          -0.0074294930162 1.3222279682 -0.021397595694 -0.0075040854814 1.3213907106 -0.021173133627
          -0.0066674654593 1.3248949786 -0.021933221594 -0.0070120623522 1.3251102002 -0.021992941843
          -0.0069201749349 1.3248184292 -0.021965514432 -0.0069406384746 1.3244755617 -0.022036667831
          -0.0069864592521 1.3242981319 -0.02196688316 -0.0069263639138 1.3239218135 -0.021972209761
          -0.0069464753445 1.3232513863 -0.022008742555 -0.006973902638 1.3227454613 -0.021953629366
          -0.006885274518 1.3222035724 -0.021965896188 -0.0071397482594 1.3212245992 -0.021811192578
          -0.0068348141574 1.3256211081 -0.02253241888 -0.0067717328004 1.32508407 -0.022553588274
          -0.0067490810252 1.3246693178 -0.022558386575 -0.0066412862384 1.3246008726 -0.022477582735
          -0.0065623740307 1.3243013104 -0.022564153289 -0.0065224862552 1.3239048564 -0.022555770214
          -0.0064452413825 1.3233097592 -0.022489697837 -0.0063068689935 1.3226146618 -0.022545269825
          -0.0062929709984 1.3221706481 -0.022526632255 -0.0062029840071 1.3218740088 -0.022469570197