<?xml version="1.0"?>
<VTKFile type="UnstructuredGrid" version="0.1" byte_order="LittleEndian" compressor="vtkZLibDataCompressor">
  <UnstructuredGrid>
    <FieldData>
      <DataArray type="Float64" Name="TIME" NumberOfTuples="1" format="ascii" RangeMin="0.21620757586" RangeMax="0.21620757586">
        0.21620757586
      </DataArray>
    </FieldData>
    <Piece NumberOfPoints="1000" NumberOfCells="0">
      <PointData>
        <DataArray type="Float64" Name="Damage" format="ascii" RangeMin="0" RangeMax="0.49719101124">
          0 0 0 0 0 0
          0 0 0 0 0 0.027932960894
          0 0 0 0 0 0
          0.027932960894 0 0 0.055084745763 0.071428571429 0.040345821326
          0.014164305949 0.012987012987 0.040345821326 0.071428571429 0.055084745763 0
          0 0.067669172932 0.11239193084 0.1074168798 0.037688442211 0.034562211982
          0.1074168798 0.11239193084 0.067669172932 0 0 0.074349442379
          0.16147308782 0.16834170854 0.12376237624 0.11286681716 0.16834170854 0.16147308782
          0.074349442379 0 0 0.084459459459 0.2 0.25806451613
          0.33860045147 0.39211618257 0.25806451613 0.2 0.084459459459 0
          0 0.093984962406 0.25360230548 0.36061381074 0.41959798995 0.46774193548
          0.36061381074 0.25360230548 0.093984962406 0 0 0.10593220339
          0.31493506494 0.40057636888 0.4447592068 0.49090909091 0.40057636888 0.31493506494
          0.10593220339 0 0 0.16759776536 0.3686440678 0.43984962406
          0.44609665428 0.49662162162 0.43984962406 0.3686440678 0.16759776536 0
          0 0.1677852349 0.36734693878 0.43891402715 0.44642857143 0.49593495935
          0.43891402715 0.36734693878 0.1677852349 0 0 0
          0 0 0 0 0 0
          0 0 0 0.027906976744 0 0
          0 0 0 0 0.027906976744 0
          0 0.056338028169 0.072776280323 0.040669856459 0.014117647059 0.012931034483
          0.040669856459 0.072776280323 0.056338028169 0 0 0.06875
          0.11483253589 0.10828025478 0.0375782881 0.034416826004 0.10828025478 0.11483253589
          0.06875 0 0 0.074303405573 0.16235294118 0.16910229645
          0.12371134021 0.11257035647 0.16910229645 0.16235294118 0.074303405573 0
          0 0.084269662921 0.20043103448 0.25812619503 0.33771106942 0.39242685026
          0.25812619503 0.20043103448 0.084269662921 0 0 0.09375
          0.25358851675 0.36093418259 0.41962421712 0.46845124283 0.36093418259 0.25358851675
          0.09375 0 0 0.10563380282 0.3153638814 0.4019138756
          0.44470588235 0.49137931034 0.4019138756 0.3153638814 0.10563380282 0
          0 0.16744186047 0.36971830986 0.440625 0.44582043344 0.49719101124
          0.440625 0.36971830986 0.16744186047 0 0 0.16759776536
          0.3686440678 0.43984962406 0.44609665428 0.49662162162 0.43984962406 0.3686440678
          0.16759776536 0 0 0 0 0
          0 0 0 0 0 0
          0 0.024647887324 0 0 0 0
          0 0 0.024647887324 0 0 0.051212938005
          0.06875 0.038817005545 0.012635379061 0.011666666667 0.038817005545 0.06875
          0.051212938005 0 0 0.064593301435 0.10905730129 0.10491803279
          0.036858974359 0.034023668639 0.10491803279 0.10905730129 0.064593301435 0
          0 0.070588235294 0.15523465704 0.16506410256 0.12283464567 0.11271676301
          0.16506410256 0.15523465704 0.070588235294 0 0 0.081896551724
          0.19333333333 0.25443786982 0.33959537572 0.38985313752 0.25443786982 0.19333333333
          0.081896551724 0 0 0.093301435407 0.24768946396 0.35573770492
          0.41987179487 0.46449704142 0.35573770492 0.24768946396 0.093301435407 0
          0 0.10781671159 0.30833333333 0.39556377079 0.4440433213 0.48666666667
          0.39556377079 0.30833333333 0.10781671159 0 0 0.16197183099
          0.35579514825 0.43062200957 0.44470588235 0.49137931034 0.43062200957 0.35579514825
          0.16197183099 0 0 0.16101694915 0.3538961039 0.42939481268
          0.4447592068 0.49090909091 0.42939481268 0.3538961039 0.16101694915 0
          0 0 0 0 0 0
          0 0 0 0 0 0.025
          0 0 0 0 0 0
          0.025 0 0 0.05023923445 0.068391866913 0.039344262295
          0.012820512821 0.011834319527 0.039344262295 0.068391866913 0.05023923445 0
          0 0.063694267516 0.10819672131 0.10465116279 0.036984352774 0.034120734908
          0.10465116279 0.10819672131 0.063694267516 0 0 0.070981210856
          0.15544871795 0.16500711238 0.12290502793 0.11282051282 0.16500711238 0.15544871795
          0.070981210856 0 0 0.082217973231 0.19378698225 0.25459317585
          0.33974358974 0.38981042654 0.25459317585 0.19378698225 0.082217973231 0
          0 0.093418259023 0.24918032787 0.35610465116 0.41963015647 0.46456692913
          0.35610465116 0.24918032787 0.093418259023 0 0 0.10765550239
          0.30868761553 0.39508196721 0.44391025641 0.48668639053 0.39508196721 0.30868761553
          0.10765550239 0 0 0.1625 0.35645933014 0.43099787686
          0.44467640919 0.4913957935 0.43099787686 0.35645933014 0.1625 0
          0 0.16165413534 0.35446685879 0.42966751918 0.44472361809 0.49078341014
          0.42966751918 0.35446685879 0.16165413534 0 0 0
          0 0 0 0 0 0
          0 0 0 0.02786377709 0 0
          0 0 0 0 0.02786377709 0
          0 0.054117647059 0.070397111913 0.040064102564 0.014173228346 0.013005780347
          0.040064102564 0.070397111913 0.054117647059 0 0 0.066805845511
          0.11057692308 0.106685633 0.037709497207 0.034615384615 0.106685633 0.11057692308
          0.066805845511 0 0 0.074226804124 0.16062992126 0.16759776536
          0.12362637363 0.11292346299 0.16759776536 0.16062992126 0.074226804124 0
          0 0.084427767355 0.19942196532 0.25769230769 0.33877038896 0.39145496536
          0.25769230769 0.19942196532 0.084427767355 0 0 0.093945720251
          0.25320512821 0.35988620199 0.41899441341 0.46666666667 0.35988620199 0.25320512821
          0.093945720251 0 0 0.10588235294 0.31407942238 0.39903846154
          0.44409448819 0.48988439306 0.39903846154 0.31407942238 0.10588235294 0
          0 0.16718266254 0.36705882353 0.43841336117 0.44536082474 0.49530956848
          0.43841336117 0.36705882353 0.16718266254 0 0 0.16728624535
          0.36543909348 0.43718592965 0.44554455446 0.49435665914 0.43718592965 0.36543909348
          0.16728624535 0 0 0 0 0
          0 0 0 0 0 0
          0 0.025280898876 0 0 0 0
          0 0 0.025280898876 0 0 0.049568965517
          0.066666666667 0.038461538462 0.013005780347 0.012016021362 0.038461538462 0.066666666667
          0.049568965517 0 0 0.06309751434 0.1050295858 0.10367454068
          0.037179487179 0.034360189573 0.10367454068 0.1050295858 0.06309751434 0
          0 0.071294559099 0.15462427746 0.1641025641 0.12296110414 0.11316397229
          0.1641025641 0.15462427746 0.071294559099 0 0 0.082616179002
          0.19359145527 0.25473933649 0.34064665127 0.38930481283 0.25473933649 0.19359145527
          0.082616179002 0 0 0.093690248566 0.24852071006 0.35564304462
          0.41923076923 0.46327014218 0.35564304462 0.24852071006 0.093690248566 0
          0 0.10775862069 0.30833333333 0.39349112426 0.4436416185 0.48598130841
          0.39349112426 0.30833333333 0.10775862069 0 0 0.16292134831
          0.35560344828 0.43021032505 0.44465290807 0.49053356282 0.43021032505 0.35560344828
          0.16292134831 0 0 0.16216216216 0.35324675325 0.42857142857
          0.44469525959 0.48962655602 0.42857142857 0.35324675325 0.16216216216 0
          0 0 0 0 0 0
          0 0 0 0 0 0.025
          0 0 0 0 0 0
          0.025 0 0 0.05023923445 0.068391866913 0.039344262295
          0.012820512821 0.011834319527 0.039344262295 0.068391866913 0.05023923445 0
          0 0.063694267516 0.10819672131 0.10465116279 0.036984352774 0.034120734908
          0.10465116279 0.10819672131 0.063694267516 0 0 0.070981210856
          0.15544871795 0.16500711238 0.12290502793 0.11282051282 0.16500711238 0.15544871795
          0.070981210856 0 0 0.082217973231 0.19378698225 0.25459317585
          0.33974358974 0.38981042654 0.25459317585 0.19378698225 0.082217973231 0
          0 0.093418259023 0.24918032787 0.35610465116 0.41963015647 0.46456692913
          0.35610465116 0.24918032787 0.093418259023 0 0 0.10765550239
          0.30868761553 0.39508196721 0.44391025641 0.48668639053 0.39508196721 0.30868761553
          0.10765550239 0 0 0.1625 0.35645933014 0.43099787686
          0.44467640919 0.4913957935 0.43099787686 0.35645933014 0.1625 0
          0 0.16165413534 0.35446685879 0.42966751918 0.44472361809 0.49078341014
          0.42966751918 0.35446685879 0.16165413534 0 0 0
          0 0 0 0 0 0
          0 0 0 0.024647887324 0 0
          0 0 0 0 0.024647887324 0
          0 0.051212938005 0.06875 0.038817005545 0.012635379061 0.011666666667
          0.038817005545 0.06875 0.051212938005 0 0 0.064593301435
          0.10905730129 0.10491803279 0.036858974359 0.034023668639 0.10491803279 0.10905730129
          0.064593301435 0 0 0.070588235294 0.15523465704 0.16506410256
          0.12283464567 0.11271676301 0.16506410256 0.15523465704 0.070588235294 0
          0 0.081896551724 0.19333333333 0.25443786982 0.33959537572 0.38985313752
          0.25443786982 0.19333333333 0.081896551724 0 0 0.093301435407
          0.24768946396 0.35573770492 0.41987179487 0.46449704142 0.35573770492 0.24768946396
          0.093301435407 0 0 0.10781671159 0.30833333333 0.39556377079
          0.4440433213 0.48666666667 0.39556377079 0.30833333333 0.10781671159 0
          0 0.16197183099 0.35579514825 0.43062200957 0.44470588235 0.49137931034
          0.43062200957 0.35579514825 0.16197183099 0 0 0.16101694915
          0.3538961039 0.42939481268 0.4447592068 0.49090909091 0.42939481268 0.3538961039
          0.16101694915 0 0 0 0 0
          0 0 0 0 0 0
          0 0.027906976744 0 0 0 0
          0 0 0.027906976744 0 0 0.056338028169
          0.072776280323 0.040669856459 0.014117647059 0.012931034483 0.040669856459 0.072776280323
          0.056338028169 0 0 0.06875 0.11483253589 0.10828025478
          0.0375782881 0.034416826004 0.10828025478 0.11483253589 0.06875 0
          0 0.074303405573 0.16235294118 0.16910229645 0.12371134021 0.11257035647
          0.16910229645 0.16235294118 0.074303405573 0 0 0.084269662921
          0.20043103448 0.25812619503 0.33771106942 0.39242685026 0.25812619503 0.20043103448
          0.084269662921 0 0 0.09375 0.25358851675 0.36093418259
          0.41962421712 0.46845124283 0.36093418259 0.25358851675 0.09375 0
          0 0.10563380282 0.3153638814 0.4019138756 0.44470588235 0.49137931034
          0.4019138756 0.3153638814 0.10563380282 0 0 0.16744186047
          0.36971830986 0.440625 0.44582043344 0.49719101124 0.440625 0.36971830986
          0.16744186047 0 0 0.16759776536 0.3686440678 0.43984962406
          0.44609665428 0.49662162162 0.43984962406 0.3686440678 0.16759776536 0
          0 0 0 0 0 0
          0 0 0 0 0 0.027932960894
          0 0 0 0 0 0
          0.027932960894 0 0 0.055084745763 0.071428571429 0.040345821326
          0.014164305949 0.012987012987 0.040345821326 0.071428571429 0.055084745763 0
          0 0.067669172932 0.11239193084 0.1074168798 0.037688442211 0.034562211982
          0.1074168798 0.11239193084 0.067669172932 0 0 0.074349442379
          0.16147308782 0.16834170854 0.12376237624 0.11286681716 0.16834170854 0.16147308782
          0.074349442379 0 0 0.084459459459 0.2 0.25806451613
          0.33860045147 0.39211618257 0.25806451613 0.2 0.084459459459 0
          0 0.093984962406 0.25360230548 0.36061381074 0.41959798995 0.46774193548
          0.36061381074 0.25360230548 0.093984962406 0 0 0.10593220339
          0.31493506494 0.40057636888 0.4447592068 0.49090909091 0.40057636888 0.31493506494
          0.10593220339 0 0 0.16759776536 0.3686440678 0.43984962406
          0.44609665428 0.49662162162 0.43984962406 0.3686440678 0.16759776536 0
          0 0.1677852349 0.36734693878 0.43891402715 0.44642857143 0.49593495935
          0.43891402715 0.36734693878 0.1677852349 0
        </DataArray>
        <DataArray type="Float64" Name="Displacement" NumberOfComponents="3" format="ascii" RangeMin="1.8973932871" RangeMax="1.9145144659">
          -0.005165871936 1.9123167579 -0.0065154369441 -0.0019394504484 1.9050474873 -0.0033932047363
          -0.001477156571 1.9054639502 -0.0023471939052 -0.0015541241753 1.9055050085 -0.002547581869
          -0.0014984504747 1.9055261527 -0.0026758746367 -0.0014257006545 1.9054492152 -0.0026826561727
          -0.001430223748 1.9052918372 -0.0025622789343 -0.0015374732209 1.9050596123 -0.0023524775089
          -0.0011007303776 1.9044423164 -0.0033389704405 0.002446379107 1.9116655328 -0.0064227590138
          -0.0018662210441 1.9053229914 -0.0035985146835 -0.0024485328633 1.9067578024 -0.0026490634637
          -0.0013582047242 1.9075868021 -0.0045731446425 -0.0014057438093 1.9065448117 -0.0038740887507
          -0.0014687799731 1.9062280837 -0.0036255641745 -0.0014928094196 1.9059728675 -0.0035449407013
          -0.0013924945253 1.9062839826 -0.0038419067315 -0.0014565262365 1.907193697 -0.0045876106885
          -0.00039363038473 1.9061991038 -0.0026540817863 -0.00098666608909 1.9045547333 -0.0035816168502
          -0.0017735425745 1.9068233835 -0.0029816619562 -0.00098213110865 1.9068042745 -0.0039821391635
          -0.0013624382135 1.9064343301 -0.0036896436698 -0.0013347694216 1.9061446697 -0.003523957414
          -0.0013279239245 1.9059974887 -0.0034471491654 -0.0013067131541 1.9059217013 -0.0035152909224
          -0.0013132796146 1.9058702109 -0.0034910174672 -0.0013006236119 1.9060042182 -0.003683249677
          -0.0016946924649 1.9062369236 -0.004009567409 -0.0008745853456 1.9060804657 -0.0029828722231
          -0.0021307175595 1.9070775046 -0.0029180547915 -0.00087934466372 1.9069288571 -0.0041272877723
          -0.0012894472049 1.9063779098 -0.003870861826 -0.0014112420222 1.9061711438 -0.0038347878234
          -0.0012516664998 1.9060418594 -0.0039649954758 -0.0012998329786 1.9059977083 -0.0039694680069
          -0.0010621132909 1.9059130079 -0.0038223094272 -0.0011840915878 1.9059524042 -0.0038628758724
          -0.0016269368148 1.9063106153 -0.0041389638577 -0.00030730650864 1.9063363855 -0.0028997547789
          -0.0020545041203 1.9071205023 -0.0029876861523 -0.00071033383571 1.9061539907 -0.0042548986346
          -0.0010337276309 1.9066709941 -0.0038905653965 -0.0015436567777 1.9059667448 -0.0038737404408
          -0.0012050226324 1.9057932229 -0.0041767518662 -0.0013286372972 1.9060482002 -0.0040667220049
          -0.00077487936532 1.9056981811 -0.0038799550324 -0.0012764451665 1.9062574401 -0.0038874222928
          -0.0016221113091 1.9055569768 -0.0042706606284 -0.00020534126034 1.9063683824 -0.002948107654
          -0.0022735433732 1.9068088665 -0.0028885234911 -0.00062432733271 1.9064993406 -0.004544653972
          -0.00086723019559 1.9064555558 -0.0043449286168 -0.00061467623252 1.9065431983 -0.0041590262309
          -0.0017066063069 1.9057552216 -0.0049663989233 -0.00042836116066 1.9056854775 -0.0049609023114
          -0.0015363977627 1.9062748457 -0.0041537595515 -0.0012926216103 1.9060342048 -0.0043413014823
          -0.0015515765573 1.9059063815 -0.0045571406798 0.00019248395399 1.9060440283 -0.0028193453911
          -0.0022199351065 1.9067567581 -0.0029341926483 -0.00019751193599 1.906120781 -0.0050777212981
          -0.00064832793439 1.9060883476 -0.0048152171313 -0.00059390549529 1.9062430223 -0.0043869110539
          -0.00044372189545 1.9057564267 -0.0043829836059 -0.0014869468131 1.9056238839 -0.0044549052823
          -0.0013972389495 1.9059896875 -0.0043837700744 -0.0013355494398 1.9056741284 -0.004803860647
          -0.0018279025225 1.9055355271 -0.0050965906171 0.00032921006404 1.9060168768 -0.0028300905365
          -0.0022912020356 1.905597033 -0.0036815949125 0.00014082258109 1.906999417 -0.0045316543991
          -0.00060076280775 1.9066944501 -0.0040126632718 -0.0011626955756 1.9063014254 -0.0044421965354
          0.00018880750752 1.9058140116 -0.0042067382462 -0.0019095551562 1.9057360901 -0.0042868798028
          -0.00067367622038 1.9060367274 -0.0044444489277 -0.0012342800723 1.9062659369 -0.0040197377331
          -0.0019840943404 1.9064256404 -0.0045245446226 0.00059633723627 1.9048382517 -0.0035557591417
          -0.0014518042505 1.9062561476 -0.0044368623138 -0.0013167016833 1.9073760168 -0.0040915678168
          -0.00030193565645 1.9049529484 -0.005838672654 0.00055403938858 1.9053693537 -0.0050085839043
          -0.00016001688676 1.907787608 -0.0034371291138 -0.0014446670331 1.9077146253 -0.0034843474034
          -0.0021823107247 1.9050755744 -0.0050624127521 -0.0013412952529 1.9044908351 -0.0058833292508
          -0.00022302185468 1.9067419004 -0.0040764602272 -0.00017140110976 1.9056425453 -0.0043300819932
          -0.0017742077587 1.8983175917 -0.01196162695 3.1413028437e-05 1.9050301072 -0.0069764943307
          0.00039897747022 1.9076887029 -0.003422090886 -0.00074807878615 1.9063799677 -0.0050444004822
          0.0020999340725 1.8994196888 -0.010504996277 -0.0037352120559 1.8992501896 -0.010491331026
          -0.000728742978 1.9061972187 -0.0049812402726 -0.0018925615832 1.9074086296 -0.0032767359618
          -0.0015829401384 1.904623299 -0.0068173340872 0.00013326721157 1.8973537387 -0.012249837071
          -0.0015293293235 1.9056266413 -0.0028651383921 -0.00065954048609 1.9058833578 -0.0030921307879
          -0.001630762157 1.9075224022 -0.0048111672406 -0.0017201998828 1.9066953992 -0.0039052454156
          -0.001611004567 1.9063429688 -0.0036214100929 -0.0015136313764 1.9061075439 -0.0034899597247
          -0.0012218442918 1.9064516325 -0.0038610219243 -0.0013419403909 1.9071286027 -0.0048255303204
          -0.0023296381858 1.9053447366 -0.0031357342058 -0.0015425454563 1.9048004591 -0.0028653779827
          -0.0011864916008 1.9074426129 -0.0041437480631 -0.0016972990851 1.9067239518 -0.0033054664386
          -0.0013577044875 1.9063686971 -0.0034610242114 -0.0014914244426 1.9063356784 -0.0034293537581
          -0.0014431886576 1.9063017315 -0.0035640434036 -0.0013756499844 1.9063079028 -0.0036615480244
          -0.0013396428121 1.9060464179 -0.0034050930536 -0.0014505500815 1.9059508694 -0.0034474376986
          -0.0011127885058 1.906135279 -0.0032946567494 -0.0016305454463 1.9067214057 -0.0041680030351
          -0.00094138348154 1.9069480256 -0.0041003674804 -0.0015366428528 1.9070230693 -0.003734526756
          -0.0012142667972 1.9067797946 -0.0041613692256 -0.0013617758225 1.9063513482 -0.0036044021168
          -0.0013342898123 1.906262463 -0.0036938061078 -0.0013101134786 1.9061943587 -0.0037301059723
          -0.0012993156223 1.9060952966 -0.0035931081011 -0.0014299135555 1.9063520914 -0.0041470745747
          -0.0011278217224 1.9064153436 -0.0037248006382 -0.0017205718669 1.9062049787 -0.0041415185099
          -0.0011912617581 1.906886898 -0.0040584030004 -0.001503709778 1.90664343 -0.0037632687169
          -0.0013503073348 1.9065911793 -0.0037848824818 -0.0012189368193 1.9065268849 -0.0039341776504
          -0.0012320037124 1.9063367342 -0.0040549895502 -0.0012412667224 1.9062592622 -0.0040600361614
          -0.0012728994567 1.9062618219 -0.0039442389931 -0.0011293071295 1.9061676305 -0.0037769471253
          -0.00099153622402 1.906057951 -0.00376910953 -0.0013138643689 1.9061040272 -0.0040797173235
          -0.0010869139904 1.9069183415 -0.0041485248368 -0.0011798769111 1.9066756582 -0.0038261189894
          -0.001243328924 1.9065920461 -0.0039882082506 -0.0010861360115 1.9065799507 -0.0041602010584
          -0.001107829117 1.9063511645 -0.0042520990507 -0.0012628716095 1.9062535311 -0.0042903012465
          -0.0012215806784 1.906316186 -0.0041754696912 -0.0010688649072 1.9061525474 -0.003987443022
          -0.0011466700366 1.9060862239 -0.003837424833 -0.0012435418078 1.9061639008 -0.0041707959553
          -0.00096187787855 1.9068452216 -0.0040994614361 -0.0011263907421 1.9067811114 -0.004036601026
          -0.0010639513586 1.9066569237 -0.0041247734369 -0.0012048021255 1.9064198762 -0.0043173659768
          -0.00038747794323 1.9064513329 -0.0037498588239 -0.0017424845887 1.9063575956 -0.0037521907222
          -0.00094370925646 1.906163848 -0.004317070674 -0.0010865186437 1.9062324418 -0.0041146233508
          -0.0010425062468 1.9062010077 -0.0040317552256 -0.0012079596849 1.9060902463 -0.00411141938
          -0.00061031518078 1.9066520225 -0.0045951302085 -0.00095359607794 1.9066025648 -0.0043978880529
          -0.00062810000118 1.9065746084 -0.004724008608 0.00015572818298 1.9065102324 -0.0042338414634
          -8.1628505722e-05 1.9062591567 -0.0038413737769 -0.0018958021071 1.9061708993 -0.0038448647228
          -0.0021502067928 1.9062613627 -0.0042174643723 -0.0013602280286 1.9061539775 -0.0047210984513
          -0.0010340459205 1.9060144437 -0.0043961463715 -0.0013986848661 1.9058958859 -0.0046163392771
          0.00024038363871 1.907021883 -0.0051378146397 -0.00060141659493 1.9065522795 -0.0047784801467
          -0.00062987508175 1.9070572244 -0.0041185090894 -0.00061604946779 1.9069820609 -0.0040069372055
          -0.00055930583869 1.9060268913 -0.0043855791347 -0.0012788704889 1.9059116138 -0.0043998265166
          -0.0012016891365 1.9067251709 -0.0039994788141 -0.0011968408309 1.9066389434 -0.0040981150709
          -0.0012199660775 1.9059693255 -0.0047523481538 -0.002095179248 1.9062676847 -0.0051692963195
          -0.00076061665971 1.906411438 -0.0048494287342 -0.00031412191677 1.9073335582 -0.0042062893482
          -0.00029388007019 1.9071629865 -0.0041380353205 -0.00016525826103 1.9068866062 -0.0040999879562
          0.0014508266831 1.9047658572 -0.0043895197266 -0.0031380288795 1.9046463045 -0.0043875696264
          -0.0015048321296 1.9066108821 -0.004098887159 -0.0013767588849 1.9067037418 -0.0041343305153
          -0.0013773925358 1.9067545323 -0.0041632094152 -0.00084799374548 1.9055571853 -0.0048241260723
          0.0027621816075 1.9082280145 -0.0046592389299 -0.00074880405455 1.9046626579 -0.0056882479296
          -0.00056339235504 1.9050767543 -0.0053781022084 0.000982730646 1.9038485256 -0.0061592127936
          -0.0049189280563 1.9075149306 -0.00489339413 0.0034613289773 1.9074762335 -0.0048729893572
          -0.0024783351812 1.9036049746 -0.0061571242891 -0.00091102210036 1.9046918696 -0.0052837633984
          -0.00064168308563 1.9040232439 -0.0056606825139 -0.0045484945905 1.9077918197 -0.0045803663228
          -0.0004868856585 1.9063171853 -0.0037462804525 -0.0021524760482 1.907344496 -0.0036236062144
          -0.0013685502618 1.906484399 -0.0032209729868 -0.0015899302586 1.906845504 -0.0037421198543
          -0.0015322676 1.9067903616 -0.0038198667681 -0.0014407735754 1.9067100873 -0.0038754897575
          -0.0014251215147 1.9065750846 -0.0037278531408 -0.0016066124417 1.9060744784 -0.0031962920601
          -0.0008079135296 1.9067726644 -0.0036249898207 -0.0025885273313 1.9054859316 -0.0037611405493
          -0.0020013253273 1.9078328179 -0.0034973025544 -0.0010725631523 1.9069830227 -0.0039931805471
          -0.0014624653062 1.9068354745 -0.0036463932227 -0.001409831534 1.9064556538 -0.0035452966095
          -0.0013961443999 1.9063678465 -0.0035161415988 -0.0014002935915 1.9062986613 -0.0035650366365
          -0.0014151373505 1.9061986201 -0.0035521600524 -0.0013562675346 1.9064074618 -0.003647198018
          -0.0017245725374 1.9063948533 -0.0039729734193 -0.00078419633029 1.9070993757 -0.003507557279
          -0.0011069307428 1.9069428711 -0.0037103975226 -0.00077706372205 1.9067275386 -0.0039977048773
          -0.0012936445148 1.906775784 -0.00384227273 -0.0013260479891 1.906609284 -0.0037509168225
          -0.0013301844643 1.9064440696 -0.0037369019976 -0.0013063083948 1.9063459335 -0.0037673240676
          -0.0013339950876 1.9063511762 -0.0037624038999 -0.0013657445466 1.9063515856 -0.0038394371068
          -0.0018586583873 1.9061471301 -0.0039967958967 -0.0015415090927 1.9061696133 -0.0037019770258
          -0.0012515917775 1.9069917126 -0.0037247844273 -0.001183501416 1.9068381439 -0.0038605790916
          -0.0011527728057 1.9067779572 -0.003987197569 -0.0012123834621 1.906585996 -0.0039685748581
          -0.0012351730141 1.9065133716 -0.003865020127 -0.0012368321304 1.9064446666 -0.0038817492767
          -0.0012640967982 1.9063331614 -0.0039716529287 -0.0013330853437 1.9063552721 -0.0039897851256
          -0.0012883039442 1.9062533506 -0.003856895259 -0.00123826873 1.9062461774 -0.0037270415964
          -0.0010584235322 1.9068995176 -0.0040341891829 -0.0011310892023 1.9069123718 -0.0039429084566
          -0.0010349528926 1.9067395081 -0.0040351747742 -0.001071344219 1.9066647175 -0.00406468119
          -0.0011208657515 1.9064440814 -0.0041023453742 -0.0011875046065 1.906360249 -0.0041282678014
          -0.0012496273237 1.9064037106 -0.0040747450825 -0.0012740295113 1.9063159025 -0.004042083622
          -0.0011843233009 1.906322239 -0.0039394720205 -0.0012588460675 1.9061396542 -0.0040221039206
          -0.0009224320312 1.9071337207 -0.0041967652186 -0.0012009709823 1.9068172491 -0.0041274154032
          -0.00093535490362 1.9067971646 -0.0041649154357 -0.0010663166261 1.9066791593 -0.0042207606763
          -0.0010026748516 1.9064468005 -0.0042294459238 -0.0011634484692 1.9063545525 -0.0042296451168
          -0.0010783360741 1.9064090336 -0.0042160405814 -0.0012160324695 1.9063756263 -0.0041638954961
          -0.00095324690126 1.9062238351 -0.0041312393625 -0.0012322529431 1.9063989089 -0.0041870945976
          -0.0010155197348 1.9071344786 -0.0039745230425 -0.00068626502183 1.9070610159 -0.0041642802624
          -0.0010357165865 1.9066340711 -0.0044485338511 -0.0010325565259 1.9065566298 -0.0044521968185
          -0.0010565769489 1.9064936174 -0.0043291235112 -0.00094441471375 1.9063942468 -0.0043223571063
          -0.00096516913649 1.9062939798 -0.0044507272187 -0.00095798608144 1.9062078636 -0.0044493093415
          -0.0013056112497 1.9064720243 -0.0041567043576 -0.00098218227917 1.9063871977 -0.0039658447743
          -0.00069102388396 1.9069646584 -0.0047129263265 -0.0011050075485 1.9066967414 -0.0042110687738
          -0.00059964774898 1.9066881431 -0.0045003643749 -0.00040074661986 1.906459659 -0.0044153077663
          0.00011744359092 1.9063046694 -0.0041385373745 -0.0019404378173 1.9062150457 -0.0041339320462
          -0.0014368020174 1.9062014162 -0.0044060875738 -0.0012433386084 1.9062739283 -0.004484066418
          -0.00073722401165 1.9061115724 -0.0041944902887 -0.0011213962233 1.9061947421 -0.0046936597451
          -0.0010825703884 1.9058459128 -0.0041876204154 -0.00017689258901 1.9066124023 -0.0046868818844
          -0.0012020149228 1.9070206526 -0.004248702768 -0.00011422714535 1.9066425655 -0.004301226297
          -0.0010213061572 1.9071197448 -0.0038256450323 -0.00063816967791 1.9070189453 -0.0038462733285
          -0.0015641934467 1.9064000706 -0.0043007231834 -0.00045995334166 1.9066169252 -0.0042542543834
          -0.0014459716473 1.9060161261 -0.004679817105 -0.00058343018655 1.9051091347 -0.0041621914251
          0.0055752398187 1.9137568817 -0.0065865104643 -0.0033062054773 1.9058124449 -0.0060199842437
          0.00095544826036 1.9052926833 -0.0081849696752 -0.0026995204233 1.9068431849 -0.0069990985232
          -0.0017533289243 1.908969827 -0.005154194529 0.00025157926363 1.9088464825 -0.0051277346365
          0.0012208805673 1.9065871875 -0.0069846800328 -0.0024590183629 1.904902035 -0.0081692175319
          0.0017527837701 1.9052407554 -0.0060293989523 -0.0070499109116 1.9129231165 -0.0065761109104
          -0.00078944340946 1.9064320882 -0.0035233744456 -0.001766610768 1.9071115943 -0.0036852098244
          -0.0018276783826 1.9071276878 -0.0035926134722 -0.0015033213049 1.9065468993 -0.0034165424928
          -0.0015039646574 1.90643277 -0.003381572815 -0.0014857271407 1.9063415344 -0.003440242071
          -0.001489594431 1.9062999668 -0.0034133956502 -0.0011714757259 1.9067141629 -0.0035908937628
          -0.0012059221022 1.9065312422 -0.0036733481634 -0.0022341746623 1.9056308728 -0.0035216383262
          -0.0016341936942 1.9075123874 -0.0036580573798 -0.001423359015 1.9070937695 -0.0036711330111
          -0.0013600847716 1.9067361933 -0.00363016824 -0.0014000303187 1.9067038416 -0.0035833148975
          -0.0013933374892 1.9065347898 -0.0035405423323 -0.0014437801278 1.9064772723 -0.0035480417225
          -0.0014203825716 1.9064487641 -0.00359156185 -0.0014566846948 1.9063165366 -0.0036309629522
          -0.0014009569799 1.906491466 -0.003670839047 -0.0011431224492 1.9067739308 -0.0036430395685
          -0.0011398883118 1.9071112487 -0.003895159781 -0.0011315373372 1.9069985681 -0.0038306830884
          -0.0012622070725 1.9068436684 -0.0037463372749 -0.0013418994879 1.906713287 -0.0037788395908
          -0.001306039106 1.9065463654 -0.0037616538521 -0.0013323576369 1.9064689657 -0.0037616289428
          -0.0013092753315 1.906463858 -0.0037906488734 -0.0013929681118 1.9064163665 -0.0037494632547
          -0.0015056690991 1.9064154018 -0.0038267560412 -0.0015149197573 1.9063436357 -0.0038952057612
          -0.0010700339374 1.9069850829 -0.0038678430856 -0.0011419426851 1.9070046453 -0.0038929484399
          -0.0011690553966 1.9068500974 -0.0038625412335 -0.0012132860811 1.9067328398 -0.0038715545609
          -0.0012598972882 1.9065639978 -0.0039492759553 -0.0012297302481 1.9064899628 -0.0039558379455
          -0.0012633775174 1.9064828548 -0.0038812658974 -0.0013114098983 1.9064310553 -0.0038683906859
          -0.0013433911217 1.9064159292 -0.0038937598312 -0.0014034077922 1.9062435227 -0.0038486078095
          -0.0010607380994 1.9067921327 -0.0039304947293 -0.00099427650129 1.9070298043 -0.0040209710984