<?xml version="1.0"?>
<VTKFile type="UnstructuredGrid" version="0.1" byte_order="LittleEndian" compressor="vtkZLibDataCompressor">
  <UnstructuredGrid>
    <FieldData>
      <DataArray type="Float64" Name="TIME" NumberOfTuples="1" format="ascii" RangeMin="0.23849389055" RangeMax="0.23849389055">
        0.23849389055
      </DataArray>
    </FieldData>
    <Piece NumberOfPoints="1000" NumberOfCells="0">
      <PointData>
        <DataArray type="Float64" Name="Damage" format="ascii" RangeMin="0" RangeMax="0.49719101124">
          0 0 0 0 0 0
          0 0 0 0 0 0.027932960894
          0 0 0 0 0 0
          0.027932960894 0 0 0.055084745763 0.071428571429 0.040345821326
          0.014164305949 0.012987012987 0.040345821326 0.071428571429 0.055084745763 0
          0 0.067669172932 0.11239193084 0.1074168798 0.037688442211 0.034562211982
          0.1074168798 0.11239193084 0.067669172932 0 0 0.074349442379
          0.16147308782 0.16834170854 0.12376237624 0.11286681716 0.16834170854 0.16147308782
          0.074349442379 0 0 0.084459459459 0.2 0.25806451613
          0.33860045147 0.39211618257 0.25806451613 0.2 0.084459459459 0
          0 0.093984962406 0.25360230548 0.36061381074 0.41959798995 0.46774193548
          0.36061381074 0.25360230548 0.093984962406 0 0 0.10593220339
          0.31493506494 0.40057636888 0.4447592068 0.49090909091 0.40057636888 0.31493506494
          0.10593220339 0 0 0.16759776536 0.3686440678 0.43984962406
          0.44609665428 0.49662162162 0.43984962406 0.3686440678 0.16759776536 0
          0 0.1677852349 0.36734693878 0.43891402715 0.44642857143 0.49593495935
          0.43891402715 0.36734693878 0.1677852349 0 0 0
          0 0 0 0 0 0
          0 0 0 0.027906976744 0 0
          0 0 0 0 0.027906976744 0
          0 0.056338028169 0.072776280323 0.040669856459 0.014117647059 0.012931034483
          0.040669856459 0.072776280323 0.056338028169 0 0 0.06875
          0.11483253589 0.10828025478 0.0375782881 0.034416826004 0.10828025478 0.11483253589
          0.06875 0 0 0.074303405573 0.16235294118 0.16910229645
          0.12371134021 0.11257035647 0.16910229645 0.16235294118 0.074303405573 0
          0 0.084269662921 0.20043103448 0.25812619503 0.33771106942 0.39242685026
          0.25812619503 0.20043103448 0.084269662921 0 0 0.09375
          0.25358851675 0.36093418259 0.41962421712 0.46845124283 0.36093418259 0.25358851675
          0.09375 0 0 0.10563380282 0.3153638814 0.4019138756
          0.44470588235 0.49137931034 0.4019138756 0.3153638814 0.10563380282 0
          0 0.16744186047 0.36971830986 0.440625 0.44582043344 0.49719101124
          0.440625 0.36971830986 0.16744186047 0 0 0.16759776536
          0.3686440678 0.43984962406 0.44609665428 0.49662162162 0.43984962406 0.3686440678
          0.16759776536 0 0 0 0 0
          0 0 0 0 0 0
          0 0.024647887324 0 0 0 0
          0 0 0.024647887324 0 0 0.051212938005
          0.06875 0.038817005545 0.012635379061 0.011666666667 0.038817005545 0.06875
          0.051212938005 0 0 0.064593301435 0.10905730129 0.10491803279
          0.036858974359 0.034023668639 0.10491803279 0.10905730129 0.064593301435 0
          0 0.070588235294 0.15523465704 0.16506410256 0.12283464567 0.11271676301
          0.16506410256 0.15523465704 0.070588235294 0 0 0.081896551724
          0.19333333333 0.25443786982 0.33959537572 0.38985313752 0.25443786982 0.19333333333
          0.081896551724 0 0 0.093301435407 0.24768946396 0.35573770492
          0.41987179487 0.46449704142 0.35573770492 0.24768946396 0.093301435407 0
          0 0.10781671159 0.30833333333 0.39556377079 0.4440433213 0.48666666667
          0.39556377079 0.30833333333 0.10781671159 0 0 0.16197183099
          0.35579514825 0.43062200957 0.44470588235 0.49137931034 0.43062200957 0.35579514825
          0.16197183099 0 0 0.16101694915 0.3538961039 0.42939481268
          0.4447592068 0.49090909091 0.42939481268 0.3538961039 0.16101694915 0
          0 0 0 0 0 0
          0 0 0 0 0 0.025
          0 0 0 0 0 0
          0.025 0 0 0.05023923445 0.068391866913 0.039344262295
          0.012820512821 0.011834319527 0.039344262295 0.068391866913 0.05023923445 0
          0 0.063694267516 0.10819672131 0.10465116279 0.036984352774 0.034120734908
          0.10465116279 0.10819672131 0.063694267516 0 0 0.070981210856
          0.15544871795 0.16500711238 0.12290502793 0.11282051282 0.16500711238 0.15544871795
          0.070981210856 0 0 0.082217973231 0.19378698225 0.25459317585
          0.33974358974 0.38981042654 0.25459317585 0.19378698225 0.082217973231 0
          0 0.093418259023 0.24918032787 0.35610465116 0.41963015647 0.46456692913
          0.35610465116 0.24918032787 0.093418259023 0 0 0.10765550239
          0.30868761553 0.39508196721 0.44391025641 0.48668639053 0.39508196721 0.30868761553
          0.10765550239 0 0 0.1625 0.35645933014 0.43099787686
          0.44467640919 0.4913957935 0.43099787686 0.35645933014 0.1625 0
          0 0.16165413534 0.35446685879 0.42966751918 0.44472361809 0.49078341014
          0.42966751918 0.35446685879 0.16165413534 0 0 0
          0 0 0 0 0 0
          0 0 0 0.02786377709 0 0
          0 0 0 0 0.02786377709 0
          0 0.054117647059 0.070397111913 0.040064102564 0.014173228346 0.013005780347
          0.040064102564 0.070397111913 0.054117647059 0 0 0.066805845511
          0.11057692308 0.106685633 0.037709497207 0.034615384615 0.106685633 0.11057692308
          0.066805845511 0 0 0.074226804124 0.16062992126 0.16759776536
          0.12362637363 0.11292346299 0.16759776536 0.16062992126 0.074226804124 0
          0 0.084427767355 0.19942196532 0.25769230769 0.33877038896 0.39145496536
          0.25769230769 0.19942196532 0.084427767355 0 0 0.093945720251
          0.25320512821 0.35988620199 0.41899441341 0.46666666667 0.35988620199 0.25320512821
          0.093945720251 0 0 0.10588235294 0.31407942238 0.39903846154
          0.44409448819 0.48988439306 0.39903846154 0.31407942238 0.10588235294 0
          0 0.16718266254 0.36705882353 0.43841336117 0.44536082474 0.49530956848
          0.43841336117 0.36705882353 0.16718266254 0 0 0.16728624535
          0.36543909348 0.43718592965 0.44554455446 0.49435665914 0.43718592965 0.36543909348
          0.16728624535 0 0 0 0 0
          0 0 0 0 0 0
          0 0.025280898876 0 0 0 0
          0 0 0.025280898876 0 0 0.049568965517
          0.066666666667 0.038461538462 0.013005780347 0.012016021362 0.038461538462 0.066666666667
          0.049568965517 0 0 0.06309751434 0.1050295858 0.10367454068
          0.037179487179 0.034360189573 0.10367454068 0.1050295858 0.06309751434 0
          0 0.071294559099 0.15462427746 0.1641025641 0.12296110414 0.11316397229
          0.1641025641 0.15462427746 0.071294559099 0 0 0.082616179002
          0.19359145527 0.25473933649 0.34064665127 0.38930481283 0.25473933649 0.19359145527
          0.082616179002 0 0 0.093690248566 0.24852071006 0.35564304462
          0.41923076923 0.46327014218 0.35564304462 0.24852071006 0.093690248566 0
          0 0.10775862069 0.30833333333 0.39349112426 0.4436416185 0.48598130841
          0.39349112426 0.30833333333 0.10775862069 0 0 0.16292134831
          0.35560344828 0.43021032505 0.44465290807 0.49053356282 0.43021032505 0.35560344828
          0.16292134831 0 0 0.16216216216 0.35324675325 0.42857142857
          0.44469525959 0.48962655602 0.42857142857 0.35324675325 0.16216216216 0
          0 0 0 0 0 0
          0 0 0 0 0 0.025
          0 0 0 0 0 0
          0.025 0 0 0.05023923445 0.068391866913 0.039344262295
          0.012820512821 0.011834319527 0.039344262295 0.068391866913 0.05023923445 0
          0 0.063694267516 0.10819672131 0.10465116279 0.036984352774 0.034120734908
          0.10465116279 0.10819672131 0.063694267516 0 0 0.070981210856
          0.15544871795 0.16500711238 0.12290502793 0.11282051282 0.16500711238 0.15544871795
          0.070981210856 0 0 0.082217973231 0.19378698225 0.25459317585
          0.33974358974 0.38981042654 0.25459317585 0.19378698225 0.082217973231 0
          0 0.093418259023 0.24918032787 0.35610465116 0.41963015647 0.46456692913
          0.35610465116 0.24918032787 0.093418259023 0 0 0.10765550239
          0.30868761553 0.39508196721 0.44391025641 0.48668639053 0.39508196721 0.30868761553
          0.10765550239 0 0 0.1625 0.35645933014 0.43099787686
          0.44467640919 0.4913957935 0.43099787686 0.35645933014 0.1625 0
          0 0.16165413534 0.35446685879 0.42966751918 0.44472361809 0.49078341014
          0.42966751918 0.35446685879 0.16165413534 0 0 0
          0 0 0 0 0 0
          0 0 0 0.024647887324 0 0
          0 0 0 0 0.024647887324 0
          0 0.051212938005 0.06875 0.038817005545 0.012635379061 0.011666666667
          0.038817005545 0.06875 0.051212938005 0 0 0.064593301435
          0.10905730129 0.10491803279 0.036858974359 0.034023668639 0.10491803279 0.10905730129
          0.064593301435 0 0 0.070588235294 0.15523465704 0.16506410256
          0.12283464567 0.11271676301 0.16506410256 0.15523465704 0.070588235294 0
          0 0.081896551724 0.19333333333 0.25443786982 0.33959537572 0.38985313752
          0.25443786982 0.19333333333 0.081896551724 0 0 0.093301435407
          0.24768946396 0.35573770492 0.41987179487 0.46449704142 0.35573770492 0.24768946396
          0.093301435407 0 0 0.10781671159 0.30833333333 0.39556377079
          0.4440433213 0.48666666667 0.39556377079 0.30833333333 0.10781671159 0
          0 0.16197183099 0.35579514825 0.43062200957 0.44470588235 0.49137931034
          0.43062200957 0.35579514825 0.16197183099 0 0 0.16101694915
          0.3538961039 0.42939481268 0.4447592068 0.49090909091 0.42939481268 0.3538961039
          0.16101694915 0 0 0 0 0
          0 0 0 0 0 0
          0 0.027906976744 0 0 0 0
          0 0 0.027906976744 0 0 0.056338028169
          0.072776280323 0.040669856459 0.014117647059 0.012931034483 0.040669856459 0.072776280323
          0.056338028169 0 0 0.06875 0.11483253589 0.10828025478
          0.0375782881 0.034416826004 0.10828025478 0.11483253589 0.06875 0
          0 0.074303405573 0.16235294118 0.16910229645 0.12371134021 0.11257035647
          0.16910229645 0.16235294118 0.074303405573 0 0 0.084269662921
          0.20043103448 0.25812619503 0.33771106942 0.39242685026 0.25812619503 0.20043103448
          0.084269662921 0 0 0.09375 0.25358851675 0.36093418259
          0.41962421712 0.46845124283 0.36093418259 0.25358851675 0.09375 0
          0 0.10563380282 0.3153638814 0.4019138756 0.44470588235 0.49137931034
          0.4019138756 0.3153638814 0.10563380282 0 0 0.16744186047
          0.36971830986 0.440625 0.44582043344 0.49719101124 0.440625 0.36971830986
          0.16744186047 0 0 0.16759776536 0.3686440678 0.43984962406
          0.44609665428 0.49662162162 0.43984962406 0.3686440678 0.16759776536 0
          0 0 0 0 0 0
          0 0 0 0 0 0.027932960894
          0 0 0 0 0 0
          0.027932960894 0 0 0.055084745763 0.071428571429 0.040345821326
          0.014164305949 0.012987012987 0.040345821326 0.071428571429 0.055084745763 0
          0 0.067669172932 0.11239193084 0.1074168798 0.037688442211 0.034562211982
          0.1074168798 0.11239193084 0.067669172932 0 0 0.074349442379
          0.16147308782 0.16834170854 0.12376237624 0.11286681716 0.16834170854 0.16147308782
          0.074349442379 0 0 0.084459459459 0.2 0.25806451613
          0.33860045147 0.39211618257 0.25806451613 0.2 0.084459459459 0
          0 0.093984962406 0.25360230548 0.36061381074 0.41959798995 0.46774193548
          0.36061381074 0.25360230548 0.093984962406 0 0 0.10593220339
          0.31493506494 0.40057636888 0.4447592068 0.49090909091 0.40057636888 0.31493506494
          0.10593220339 0 0 0.16759776536 0.3686440678 0.43984962406
          0.44609665428 0.49662162162 0.43984962406 0.3686440678 0.16759776536 0
          0 0.1677852349 0.36734693878 0.43891402715 0.44642857143 0.49593495935
          0.43891402715 0.36734693878 0.1677852349 0
        </DataArray>
        <DataArray type="Float64" Name="Displacement" NumberOfComponents="3" format="ascii" RangeMin="1.6952127839" RangeMax="1.7081136497">
          -0.0025180525954 1.6993120401 -0.0082951582548 -0.0030706762646 1.7003940348 -0.010303276029
          -0.0034075084421 1.6982533071 -0.0092853575969 -0.0035868438863 1.6987713607 -0.0099170690458
          -0.0038528433623 1.6990483014 -0.010265133036 -0.0039483332258 1.6992395535 -0.010567398815
          -0.0041980808844 1.6982329987 -0.0099815759903 -0.0043355465698 1.6972779644 -0.0092973162636
          -0.0046662323834 1.6989244701 -0.010376485857 -0.0053133416499 1.6974875345 -0.0083011134317
          -0.0023983130179 1.6988050628 -0.0099448851755 -0.0039517627094 1.6979266605 -0.0083589873101
          -0.0037391217612 1.6979580985 -0.0089917414434 -0.0037744444362 1.6991417783 -0.01005216338
          -0.0034980820652 1.6990274017 -0.010158539682 -0.0038452938857 1.6985032107 -0.010022887349
          -0.0036146185593 1.6985306957 -0.010038787864 -0.0036954377071 1.6970647924 -0.0090768366529
          -0.0035137369475 1.696396057 -0.008330080766 -0.0049290771136 1.696979113 -0.010009027136
          -0.0032903005674 1.6977821426 -0.009560717805 -0.003318889567 1.69865972 -0.0096247641708
          -0.0038193550325 1.6988325551 -0.010097314916 -0.0033074151848 1.6985053942 -0.010082428278
          -0.0034072360177 1.6990316324 -0.01061240645 -0.003510310564 1.6987491215 -0.010666127617
          -0.0036892876112 1.6979271639 -0.010069964264 -0.0031871827817 1.697807055 -0.01012157573
          -0.0036682888074 1.6972258449 -0.0096020712792 -0.0037080338628 1.6959601144 -0.0095818857538
          -0.0033323169979 1.6986447325 -0.010089750239 -0.0032352149055 1.6986948707 -0.010290621394
          -0.0030477278239 1.6983200369 -0.0104409367 -0.0031035954141 1.6985130451 -0.010198828415
          -0.0032960693848 1.6986201328 -0.010627838201 -0.0032791693137 1.6983407567 -0.010616101419
          -0.0036111659743 1.6979957013 -0.010347688907 -0.0035627657809 1.6972560394 -0.010453452204
          -0.0032987832194 1.6972725776 -0.010278988534 -0.003220228778 1.696788118 -0.010035873622
          -0.0031495822643 1.6985891038 -0.010678105391 -0.003018128253 1.6985058488 -0.010630711777
          -0.0031376891713 1.6984272673 -0.010561160431 -0.0035807489197 1.697987499 -0.010709152349
          -0.0027020326993 1.6987058333 -0.010452541877 -0.0031548646892 1.6981535176 -0.010729965061
          -0.0026166357184 1.6974331861 -0.010792862456 -0.0030260976958 1.6973741169 -0.010573390375
          -0.0031322722016 1.6970405657 -0.010601584986 -0.00298106322 1.6967168307 -0.010632555429
          -0.0034031434989 1.698850552 -0.011132424537 -0.0029795427428 1.6987132146 -0.011501302737
          -0.0034224235187 1.6985481344 -0.010561298995 -0.0034314624005 1.6980545346 -0.010927139638
          -0.00092206645316 1.6990875481 -0.0096531029563 -0.0049531662843 1.6988278528 -0.0096628891583
          -0.0023047876152 1.6975127968 -0.011013180322 -0.0023120808475 1.6975016375 -0.010606810934
          -0.0027584088471 1.6972406012 -0.011487635087 -0.0023242818763 1.6969066075 -0.011135780078
          -0.003799459089 1.6992368507 -0.010793161824 -0.0021920707701 1.6988847272 -0.012130637877
          -0.0032536350276 1.6980883306 -0.011962430182 -0.0048191853823 1.6979194092 -0.012289183553
          -0.0060044134361 1.6978196625 -0.013880815832 0.00074098408526 1.6976002787 -0.013926445858
          -0.00051537920471 1.6972812044 -0.012314368651 -0.0020906042481 1.6970463283 -0.011981158814
          -0.0031152994909 1.6974083663 -0.012117043633 -0.001506085827 1.697376184 -0.01075082291
          -0.0036221296263 1.7001341739 -0.010584607245 -0.0004911315254 1.6990789121 -0.013560693996
          -0.0048274811374 1.698658223 -0.011833767529 -0.0047167308488 1.6981623935 -0.01278822247
          -0.0038007025533 1.6973726602 -0.013645513993 -0.0010937246307 1.6971589369 -0.013686900869
          -0.00019672775994 1.6975243465 -0.01281527889 -0.00011483425648 1.6976227891 -0.011826829135
          -0.0045920282448 1.697664299 -0.013628737816 -0.0012314443446 1.6983381176 -0.01039155362
          -0.0028771225789 1.6973910234 -0.01225203338 -0.0037318669916 1.7012765564 -0.0084592175367
          -0.00023439526969 1.6997490351 -0.011309664354 -0.0016406734791 1.6979993842 -0.011264950818
          -0.003296219425 1.6978667708 -0.011593102619 -0.0012603142941 1.6976915334 -0.011591926724
          -0.0029231701699 1.69745843 -0.011240010729 -0.0042592675164 1.6988165065 -0.011249819086
          -0.00070822339441 1.699831344 -0.008390720016 -0.0017169934753 1.6954928324 -0.012270760435
          -0.0018834438531 1.6990101237 -0.013717883131 -0.002020460725 1.7055045642 -0.005864587917
          -0.0030190663293 1.6991216363 -0.012787445953 -0.00029812406885 1.7009700104 -0.0097077791143
          0.00084775392238 1.6957637781 -0.013480914408 -0.0051393091246 1.6955987632 -0.013306857952
          -0.0038000044574 1.7003867585 -0.0096579759868 -0.0010481228982 1.6980635957 -0.01281699378
          -0.0020767339707 1.7042074174 -0.0057014989124 -0.0022971005909 1.6968066396 -0.014105171327
          -0.0038921634215 1.6997355765 -0.0095344514589 -0.003101800342 1.6983798504 -0.0089801235238
          -0.0033679290031 1.6980964111 -0.0088731486949 -0.0039483620384 1.6993251872 -0.0099927756223
          -0.0038154747187 1.6990586844 -0.01014485524 -0.0040093307039 1.6986826099 -0.0098200644612
          -0.0038805203286 1.6986967264 -0.0099844696898 -0.0044417744361 1.6971948703 -0.008953961591
          -0.0047548712874 1.696901238 -0.0089442354199 -0.0038546839258 1.6978787233 -0.0096193216769
          -0.0033247430882 1.698596042 -0.0093626092959 -0.0032324436357 1.6992710362 -0.0096273490077
          -0.0033868570091 1.6990569124 -0.0099458239678 -0.0035409037998 1.6987361907 -0.0096867345627
          -0.0036123695056 1.6985484562 -0.0096362025047 -0.003826647087 1.6986313567 -0.0099470425438
          -0.0038681505696 1.6980226128 -0.0095894383328 -0.0040345554557 1.6980074485 -0.0099497923635
          -0.004221350507 1.6977988664 -0.009627208678 -0.0041266036117 1.6967483915 -0.0094095339343
          -0.0031926855331 1.699017805 -0.010302304491 -0.0035433702583 1.6988635853 -0.0097465185558
          -0.0033815333581 1.6988760198 -0.010161915611 -0.0033648317482 1.6988316419 -0.010174203154
          -0.0034410060111 1.6986629674 -0.010049762357 -0.0035137934396 1.6984333593 -0.010031221689
          -0.0036339091003 1.6981869247 -0.010132130939 -0.0036267594342 1.6978373964 -0.010160888048
          -0.0034501697912 1.6974060533 -0.0097459162312 -0.0038179739147 1.6971491662 -0.010265618839
          -0.0033311804886 1.6987819409 -0.011172301244 -0.003435297673 1.6988869161 -0.010490541435
          -0.0032930339538 1.6987654169 -0.010317667791 -0.0034642490959 1.6985568652 -0.0099390270403
          -0.0032685774724 1.6985502239 -0.010215740973 -0.0032641107137 1.6983807968 -0.010276845062
          -0.003105365887 1.6979429521 -0.0099267989913 -0.0032957462508 1.6977441832 -0.010319022247
          -0.0031612581302 1.6974209943 -0.01048108061 -0.0032979269879 1.696956453 -0.01112037952
          -0.0035196243249 1.6993815193 -0.011384762573 -0.0036222141582 1.6986371421 -0.011055996051
          -0.0034234351816 1.6987584132 -0.010540270654 -0.003183168575 1.6986684144 -0.010772765208
          -0.0030553155785 1.6986426552 -0.010668515007 -0.0031245886522 1.6984683054 -0.010660550582
          -0.0029697467051 1.698047606 -0.010729691914 -0.002767134383 1.6977355819 -0.010556325196
          -0.0025685720214 1.6971739367 -0.0110549691 -0.0026882894407 1.6975550671 -0.011345831816
          -0.0031342155196 1.6994162325 -0.011019112492 -0.003336954831 1.6988845208 -0.011016409511
          -0.0034724092431 1.6987538605 -0.010889872382 -0.0031977843292 1.6986471635 -0.0109668543
          -0.0034800430753 1.6984140378 -0.011351106633 -0.0023370475756 1.6982358782 -0.011355718327
          -0.0025734265293 1.6980268035 -0.01092015164 -0.0023191801631 1.6977300022 -0.010871500213
          -0.002430977299 1.6974322219 -0.01099826731 -0.0026684645273 1.6975576086 -0.010983676168
          -0.0031546972741 1.698867379 -0.011687582443 -0.0034406029096 1.6990454495 -0.011086670445
          -0.0033798417826 1.6987727886 -0.011341498338 -0.0030781994736 1.6985127771 -0.011557863573
          -0.0035862419558 1.6984252129 -0.012076202529 -0.0017636824496 1.6981903747 -0.012079116441
          -0.0022848773068 1.6978764221 -0.01160737059 -0.0019963030967 1.6977439569 -0.01137358982
          -0.0019156223873 1.6975751339 -0.011093649374 -0.0022495456996 1.6969936363 -0.011669542362
          -0.0020488632331 1.6994551534 -0.012540833153 -0.0029899649723 1.6987384188 -0.012049730698
          -0.0029919346111 1.6985223407 -0.012347879475 -0.0021230351165 1.6981264448 -0.012071613407
          -0.0032931921612 1.6993095574 -0.012151101864 -0.0016576513291 1.6990802381 -0.012152492162
          -0.0028477934757 1.6974994103 -0.012077119157 -0.0019307686925 1.6974829601 -0.012340625822
          -0.0019653578427 1.6972879119 -0.012056996248 -0.0029390869501 1.6975691471 -0.012546536789
          -0.0041630608806 1.6972174918 -0.01288361876 -0.003349259085 1.6980130436 -0.01280997604
          -0.0027555795422 1.6989615148 -0.012334913341 -0.001854593998 1.6980670739 -0.012535894028
          -0.002219910723 1.6976383708 -0.013395494874 -0.0023587321078 1.6973950103 -0.013389429235
          -0.0027005884538 1.6974410065 -0.012531216031 -0.0017974310334 1.6979086113 -0.012314251822
          -0.0012116504761 1.6965342447 -0.012812477898 -0.0003980585434 1.6953385352 -0.012823432299
          -0.0034252974224 1.6983430082 -0.01356342069 -0.0016928246323 1.7011813194 -0.0098364543951
          0.0010424735033 1.6999336687 -0.011787833044 0.0011844260008 1.697757976 -0.012664890743
          -0.0024940092222 1.6990647224 -0.01546892169 -0.0015202595457 1.6989847036 -0.015495909762
          -0.0053186809818 1.6971205141 -0.012706589064 -0.0051595797736 1.6989005621 -0.011847964316
          -0.0025410815008 1.6998476122 -0.0098060842422 -0.00038862024473 1.696185318 -0.013516439999
          -0.0029104013092 1.6981610021 -0.009013475185 -0.0030287327716 1.6985550358 -0.0090444199094
          -0.0037543567999 1.699542367 -0.010162171518 -0.0035234540797 1.6985121792 -0.0093001805072
          -0.0038268876529 1.6985882538 -0.0094184086248 -0.0039245199785 1.6985679747 -0.0095887928755
          -0.0042605381294 1.6979268784 -0.0093084595147 -0.0040770931446 1.6985262023 -0.010190548941
          -0.0047706652278 1.6971566951 -0.0090155350453 -0.0050061967187 1.6962392093 -0.0089762595476
          -0.0028897743271 1.6989264515 -0.0098457511386 -0.0038916543939 1.6997563941 -0.0098592029884
          -0.0033342970438 1.6985703695 -0.0095280831317 -0.0036103617241 1.6990317056 -0.0098488076745
          -0.0036735390488 1.6989244891 -0.0098243541573 -0.0037114670753 1.6987450746 -0.0098474853482
          -0.003829093167 1.6983930765 -0.0098442956798 -0.0040659604575 1.6975572136 -0.0095218872369
          -0.003507652162 1.6983120448 -0.0098471063337 -0.0045142225305 1.6971399884 -0.0098393415182
          -0.0036002942622 1.6996497477 -0.010180727968 -0.0030563388698 1.6990379157 -0.010206446712
          -0.0034454746647 1.6991226347 -0.010012126575 -0.0034517014486 1.6990586081 -0.0099782177828
          -0.003453007685 1.6990420578 -0.010034223675 -0.0035903401544 1.6988077562 -0.010033836214
          -0.0035566227258 1.6984355976 -0.0099845921447 -0.0035665501296 1.6980928974 -0.010021613344
          -0.0039483272737 1.6976031359 -0.010210256733 -0.0033969656161 1.697808138 -0.010163301938
          -0.0034030121116 1.699360068 -0.010605330851 -0.0033100145536 1.699078048 -0.010417436986
          -0.0033416690052 1.699144719 -0.010393122962 -0.0032743243274 1.699065307 -0.010371788519
          -0.0032827225743 1.6988420082 -0.010424711524 -0.0033506877699 1.6986507926 -0.010459855041
          -0.0033001534993 1.6984680701 -0.010349772302 -0.0032569892401 1.6981250723 -0.010385077024
          -0.0033117145279 1.6976337649 -0.010434577362 -0.0031936032366 1.6975080986 -0.010593148699
          -0.0031197879046 1.6996194412 -0.011039106898 -0.0034058456233 1.6992007178 -0.010723317249
          -0.0032793175561 1.6991577044 -0.010792436841 -0.0032072194981 1.6989986161 -0.010658926619
          -0.0030724819433 1.6989068244 -0.010705422411 -0.0031414686296 1.6986911078 -0.010704092451
          -0.0029780453588 1.6983786125 -0.010706022226 -0.0029085833886 1.6981143022 -0.010797712675
          -0.0027953092638 1.6977639495 -0.010724559938 -0.0030718209978 1.697763918 -0.011014589757
          -0.0028632029169 1.6995552343 -0.011219613351 -0.0029625410945 1.6993273726 -0.011166936589
          -0.0032474726483 1.6990890382 -0.011052510708 -0.0032185727471 1.6988028116 -0.011060362211
          -0.0032418880728 1.6988291222 -0.011209136623 -0.0025325287377 1.6986107402 -0.011252201377
          -0.0025921243587 1.6981743595 -0.011060366683 -0.0025479290256 1.6980577553 -0.011054293094
          -0.0028268129972 1.6978862883 -0.011157190625 -0.0029115270906 1.6977184348 -0.011176603375
          -0.0025638229182 1.6995418705 -0.011756620416 -0.0032774290251 1.6993189838 -0.011286715812
          -0.0031688770124 1.6991515225 -0.011471861125 -0.0034255044736 1.6989162972 -0.011603154711
          -0.0021372128852 1.6985563571 -0.010963064716 -0.0032436381458 1.6983397435 -0.010954549096
          -0.0019464580654 1.6982925411 -0.011593482933 -0.0021950966453 1.6981358645 -0.011475306173
          -0.0021576912729 1.6978874303 -0.011294285265 -0.0027958359712 1.6976690233 -0.011729567576
          -0.0026948684193 1.6991798339 -0.011884301783 -0.0022441069523 1.69960855 -0.011747440228
          -0.0030297947543 1.6991773926 -0.01189148646 -0.0025591583435 1.6984798894 -0.012111932884
          -0.0023057534634 1.6979551231 -0.011782605575 -0.0026277714361 1.6977931327 -0.011759191062
          -0.0023853891084 1.697866911 -0.012100764406 -0.0019376111799 1.6981463846 -0.01187230378
          -0.0027038357756 1.6981488556 -0.011740145117 -0.0022599277915 1.6972998131 -0.01183848632
          -0.0012623995695 1.7003721142 -0.011560728914 -0.0029431608971 1.6995884984 -0.01141320888
          -0.0010467074659 1.6993416326 -0.012230645596 -0.00096256372298 1.6981301684 -0.012191177698
          -0.001315175522 1.6975270168 -0.012032065279 -0.0032590498853 1.6973026035 -0.012026989204
          -0.0035555482944 1.6975044651 -0.012195275804 -0.0034462898369 1.6982903328 -0.012210776676
          -0.0016277169707 1.6981207927 -0.011415793952 -0.0032772880547 1.6984998277 -0.011554399807
          0.0035049698326 1.7041752947 -0.011250704052 -0.0036774767453 1.698499928 -0.011430399857
          0.00088786927175 1.7013051851 -0.010587829402 0.0010995925421 1.6984241495 -0.011426548822
          0.00044977543757 1.6953716294 -0.012728735875 -0.0046555690652 1.6951585699 -0.012733082242
          -0.0053036959024 1.6977692054 -0.011432339197 -0.0050601673985 1.7002670097 -0.01057022328
          -0.00054685177265 1.6970238308 -0.011418252607 -0.0075978376697 1.7022827611 -0.011269276757
          -0.0030826722855 1.6992097214 -0.0093554438023 -0.0037778147551 1.6996498002 -0.0092628048749
          -0.0037955877459 1.6993667378 -0.0095260372204 -0.0041063951494 1.6994626981 -0.0098016317751
          -0.0038651662349 1.6989343946 -0.0094922625354 -0.0039442066166 1.6987390223 -0.0095513762441
          -0.0037007233991 1.698881465 -0.0097976327689 -0.0040135488876 1.6983360429 -0.0094916062731
          -0.003994170814 1.6982370653 -0.0092626422571 -0.0047072323533 1.6974432016 -0.0093435730155
          -0.0039500998621 1.6997535188 -0.0093693269235 -0.0035438659293 1.6994704964 -0.0097060112471
          -0.0036520659951 1.6994429565 -0.0097821546354 -0.0036730468714 1.6993079496 -0.0097985147334
          -0.003697419422 1.6991636335 -0.0098414559816 -0.0036857348046 1.6989171886 -0.0098601858577
          -0.0037655694799 1.6986659853 -0.0097959848727 -0.0037599775613 1.6984414876 -0.0097955747468
          -0.0038784698519 1.698027981 -0.0097052283927 -0.0034419228282 1.6980408575 -0.0093529913121
          -0.0032078505908 1.6996052851 -0.010420856923 -0.003537252648 1.6995321602 -0.010063915774
          -0.0035193807752 1.6995436796 -0.010131158589 -0.0034264589811 1.6994555481 -0.010091065214
          -0.0034922678527 1.6993595457 -0.010056051381 -0.0035168569553 1.6991673461 -0.010052360633
          -0.0035684405005 1.6988167438 -0.010108300285 -0.0035033219861 1.6985069971 -0.010126746063
          -0.0034619577325 1.6981151067 -0.010069517452 -0.0038401536179 1.6977241629 -0.010427065323
          -0.003629608778 1.6999660861 -0.010461216476 -0.0035339502815 1.6996153133 -0.010437081105
          -0.00333037774 1.6995020521 -0.010340451664 -0.0032394111904 1.6994005064 -0.01036526557
          -0.0033391053446 1.6991685481 -0.010360641801 -0.003325016729 1.6989683158 -0.010367857659
          -0.0033172825927 1.6987903188 -0.010432773112 -0.0032595623134 1.6984705709 -0.01034266542
          -0.0030516438899 1.6981780318 -0.010424942273 -0.0030018059673 1.6980816146 -0.010463637178
          -0.0033636692201 1.6992787233 -0.010672342006 -0.0032912718446 1.6995437246 -0.010782477383
          -0.0032815912995 1.699419147 -0.010721621249 -0.0031175967064 1.6993791977 -0.010742410978
          -0.0030733835578 1.6992650808 -0.010686032447 -0.0030986341241 1.6990144201 -0.010758404985
          -0.0030583062094 1.6987538524 -0.010786548644 -0.0029105294343 1.6983988314 -0.010733145068