<?xml version="1.0"?>
<VTKFile type="UnstructuredGrid" version="0.1" byte_order="LittleEndian" compressor="vtkZLibDataCompressor">
  <UnstructuredGrid>
    <FieldData>
      <DataArray type="Float64" Name="TIME" NumberOfTuples="1" format="ascii" RangeMin="0.3013251874" RangeMax="0.3013251874">
        0.3013251874
      </DataArray>
    </FieldData>
    <Piece NumberOfPoints="1000" NumberOfCells="0">
      <PointData>
        <DataArray type="Float64" Name="Damage" format="ascii" RangeMin="0" RangeMax="0.49719101124">
          0 0 0 0 0 0
          0 0 0 0 0 0.027932960894
          0 0 0 0 0 0
          0.027932960894 0 0 0.055084745763 0.071428571429 0.040345821326
          0.014164305949 0.012987012987 0.040345821326 0.071428571429 0.055084745763 0
          0 0.067669172932 0.11239193084 0.1074168798 0.037688442211 0.034562211982
          0.1074168798 0.11239193084 0.067669172932 0 0 0.074349442379
          0.16147308782 0.16834170854 0.12376237624 0.11286681716 0.16834170854 0.16147308782
          0.074349442379 0 0 0.084459459459 0.2 0.25806451613
          0.33860045147 0.39211618257 0.25806451613 0.2 0.084459459459 0
          0 0.093984962406 0.25360230548 0.36061381074 0.41959798995 0.46774193548
          0.36061381074 0.25360230548 0.093984962406 0 0 0.10593220339
          0.31493506494 0.40057636888 0.4447592068 0.49090909091 0.40057636888 0.31493506494
          0.10593220339 0 0 0.16759776536 0.3686440678 0.43984962406
          0.44609665428 0.49662162162 0.43984962406 0.3686440678 0.16759776536 0
          0 0.1677852349 0.36734693878 0.43891402715 0.44642857143 0.49593495935
          0.43891402715 0.36734693878 0.1677852349 0 0 0
          0 0 0 0 0 0
          0 0 0 0.027906976744 0 0
          0 0 0 0 0.027906976744 0
          0 0.056338028169 0.072776280323 0.040669856459 0.014117647059 0.012931034483
          0.040669856459 0.072776280323 0.056338028169 0 0 0.06875
          0.11483253589 0.10828025478 0.0375782881 0.034416826004 0.10828025478 0.11483253589
          0.06875 0 0 0.074303405573 0.16235294118 0.16910229645
          0.12371134021 0.11257035647 0.16910229645 0.16235294118 0.074303405573 0
          0 0.084269662921 0.20043103448 0.25812619503 0.33771106942 0.39242685026
          0.25812619503 0.20043103448 0.084269662921 0 0 0.09375
          0.25358851675 0.36093418259 0.41962421712 0.46845124283 0.36093418259 0.25358851675
          0.09375 0 0 0.10563380282 0.3153638814 0.4019138756
          0.44470588235 0.49137931034 0.4019138756 0.3153638814 0.10563380282 0
          0 0.16744186047 0.36971830986 0.440625 0.44582043344 0.49719101124
          0.440625 0.36971830986 0.16744186047 0 0 0.16759776536
          0.3686440678 0.43984962406 0.44609665428 0.49662162162 0.43984962406 0.3686440678
          0.16759776536 0 0 0 0 0
          0 0 0 0 0 0
          0 0.024647887324 0 0 0 0
          0 0 0.024647887324 0 0 0.051212938005
          0.06875 0.038817005545 0.012635379061 0.011666666667 0.038817005545 0.06875
          0.051212938005 0 0 0.064593301435 0.10905730129 0.10491803279
          0.036858974359 0.034023668639 0.10491803279 0.10905730129 0.064593301435 0
          0 0.070588235294 0.15523465704 0.16506410256 0.12283464567 0.11271676301
          0.16506410256 0.15523465704 0.070588235294 0 0 0.081896551724
          0.19333333333 0.25443786982 0.33959537572 0.38985313752 0.25443786982 0.19333333333
          0.081896551724 0 0 0.093301435407 0.24768946396 0.35573770492
          0.41987179487 0.46449704142 0.35573770492 0.24768946396 0.093301435407 0
          0 0.10781671159 0.30833333333 0.39556377079 0.4440433213 0.48666666667
          0.39556377079 0.30833333333 0.10781671159 0 0 0.16197183099
          0.35579514825 0.43062200957 0.44470588235 0.49137931034 0.43062200957 0.35579514825
          0.16197183099 0 0 0.16101694915 0.3538961039 0.42939481268
          0.4447592068 0.49090909091 0.42939481268 0.3538961039 0.16101694915 0
          0 0 0 0 0 0
          0 0 0 0 0 0.025
          0 0 0 0 0 0
          0.025 0 0 0.05023923445 0.068391866913 0.039344262295
          0.012820512821 0.011834319527 0.039344262295 0.068391866913 0.05023923445 0
          0 0.063694267516 0.10819672131 0.10465116279 0.036984352774 0.034120734908
          0.10465116279 0.10819672131 0.063694267516 0 0 0.070981210856
          0.15544871795 0.16500711238 0.12290502793 0.11282051282 0.16500711238 0.15544871795
          0.070981210856 0 0 0.082217973231 0.19378698225 0.25459317585
          0.33974358974 0.38981042654 0.25459317585 0.19378698225 0.082217973231 0
          0 0.093418259023 0.24918032787 0.35610465116 0.41963015647 0.46456692913
          0.35610465116 0.24918032787 0.093418259023 0 0 0.10765550239
          0.30868761553 0.39508196721 0.44391025641 0.48668639053 0.39508196721 0.30868761553
          0.10765550239 0 0 0.1625 0.35645933014 0.43099787686
          0.44467640919 0.4913957935 0.43099787686 0.35645933014 0.1625 0
          0 0.16165413534 0.35446685879 0.42966751918 0.44472361809 0.49078341014
          0.42966751918 0.35446685879 0.16165413534 0 0 0
          0 0 0 0 0 0
          0 0 0 0.02786377709 0 0
          0 0 0 0 0.02786377709 0
          0 0.054117647059 0.070397111913 0.040064102564 0.014173228346 0.013005780347
          0.040064102564 0.070397111913 0.054117647059 0 0 0.066805845511
          0.11057692308 0.106685633 0.037709497207 0.034615384615 0.106685633 0.11057692308
          0.066805845511 0 0 0.074226804124 0.16062992126 0.16759776536
          0.12362637363 0.11292346299 0.16759776536 0.16062992126 0.074226804124 0
          0 0.084427767355 0.19942196532 0.25769230769 0.33877038896 0.39145496536
          0.25769230769 0.19942196532 0.084427767355 0 0 0.093945720251
          0.25320512821 0.35988620199 0.41899441341 0.46666666667 0.35988620199 0.25320512821
          0.093945720251 0 0 0.10588235294 0.31407942238 0.39903846154
          0.44409448819 0.48988439306 0.39903846154 0.31407942238 0.10588235294 0
          0 0.16718266254 0.36705882353 0.43841336117 0.44536082474 0.49530956848
          0.43841336117 0.36705882353 0.16718266254 0 0 0.16728624535
          0.36543909348 0.43718592965 0.44554455446 0.49435665914 0.43718592965 0.36543909348
          0.16728624535 0 0 0 0 0
          0 0 0 0 0 0
          0 0.025280898876 0 0 0 0
          0 0 0.025280898876 0 0 0.049568965517
          0.066666666667 0.038461538462 0.013005780347 0.012016021362 0.038461538462 0.066666666667
          0.049568965517 0 0 0.06309751434 0.1050295858 0.10367454068
          0.037179487179 0.034360189573 0.10367454068 0.1050295858 0.06309751434 0
          0 0.071294559099 0.15462427746 0.1641025641 0.12296110414 0.11316397229
          0.1641025641 0.15462427746 0.071294559099 0 0 0.082616179002
          0.19359145527 0.25473933649 0.34064665127 0.38930481283 0.25473933649 0.19359145527
          0.082616179002 0 0 0.093690248566 0.24852071006 0.35564304462
          0.41923076923 0.46327014218 0.35564304462 0.24852071006 0.093690248566 0
          0 0.10775862069 0.30833333333 0.39349112426 0.4436416185 0.48598130841
          0.39349112426 0.30833333333 0.10775862069 0 0 0.16292134831
          0.35560344828 0.43021032505 0.44465290807 0.49053356282 0.43021032505 0.35560344828
          0.16292134831 0 0 0.16216216216 0.35324675325 0.42857142857
          0.44469525959 0.48962655602 0.42857142857 0.35324675325 0.16216216216 0
          0 0 0 0 0 0
          0 0 0 0 0 0.025
          0 0 0 0 0 0
          0.025 0 0 0.05023923445 0.068391866913 0.039344262295
          0.012820512821 0.011834319527 0.039344262295 0.068391866913 0.05023923445 0
          0 0.063694267516 0.10819672131 0.10465116279 0.036984352774 0.034120734908
          0.10465116279 0.10819672131 0.063694267516 0 0 0.070981210856
          0.15544871795 0.16500711238 0.12290502793 0.11282051282 0.16500711238 0.15544871795
          0.070981210856 0 0 0.082217973231 0.19378698225 0.25459317585
          0.33974358974 0.38981042654 0.25459317585 0.19378698225 0.082217973231 0
          0 0.093418259023 0.24918032787 0.35610465116 0.41963015647 0.46456692913
          0.35610465116 0.24918032787 0.093418259023 0 0 0.10765550239
          0.30868761553 0.39508196721 0.44391025641 0.48668639053 0.39508196721 0.30868761553
          0.10765550239 0 0 0.1625 0.35645933014 0.43099787686
          0.44467640919 0.4913957935 0.43099787686 0.35645933014 0.1625 0
          0 0.16165413534 0.35446685879 0.42966751918 0.44472361809 0.49078341014
          0.42966751918 0.35446685879 0.16165413534 0 0 0
          0 0 0 0 0 0
          0 0 0 0.024647887324 0 0
          0 0 0 0 0.024647887324 0
          0 0.051212938005 0.06875 0.038817005545 0.012635379061 0.011666666667
          0.038817005545 0.06875 0.051212938005 0 0 0.064593301435
          0.10905730129 0.10491803279 0.036858974359 0.034023668639 0.10491803279 0.10905730129
          0.064593301435 0 0 0.070588235294 0.15523465704 0.16506410256
          0.12283464567 0.11271676301 0.16506410256 0.15523465704 0.070588235294 0
          0 0.081896551724 0.19333333333 0.25443786982 0.33959537572 0.38985313752
          0.25443786982 0.19333333333 0.081896551724 0 0 0.093301435407
          0.24768946396 0.35573770492 0.41987179487 0.46449704142 0.35573770492 0.24768946396
          0.093301435407 0 0 0.10781671159 0.30833333333 0.39556377079
          0.4440433213 0.48666666667 0.39556377079 0.30833333333 0.10781671159 0
          0 0.16197183099 0.35579514825 0.43062200957 0.44470588235 0.49137931034
          0.43062200957 0.35579514825 0.16197183099 0 0 0.16101694915
          0.3538961039 0.42939481268 0.4447592068 0.49090909091 0.42939481268 0.3538961039
          0.16101694915 0 0 0 0 0
          0 0 0 0 0 0
          0 0.027906976744 0 0 0 0
          0 0 0.027906976744 0 0 0.056338028169
          0.072776280323 0.040669856459 0.014117647059 0.012931034483 0.040669856459 0.072776280323
          0.056338028169 0 0 0.06875 0.11483253589 0.10828025478
          0.0375782881 0.034416826004 0.10828025478 0.11483253589 0.06875 0
          0 0.074303405573 0.16235294118 0.16910229645 0.12371134021 0.11257035647
          0.16910229645 0.16235294118 0.074303405573 0 0 0.084269662921
          0.20043103448 0.25812619503 0.33771106942 0.39242685026 0.25812619503 0.20043103448
          0.084269662921 0 0 0.09375 0.25358851675 0.36093418259
          0.41962421712 0.46845124283 0.36093418259 0.25358851675 0.09375 0
          0 0.10563380282 0.3153638814 0.4019138756 0.44470588235 0.49137931034
          0.4019138756 0.3153638814 0.10563380282 0 0 0.16744186047
          0.36971830986 0.440625 0.44582043344 0.49719101124 0.440625 0.36971830986
          0.16744186047 0 0 0.16759776536 0.3686440678 0.43984962406
          0.44609665428 0.49662162162 0.43984962406 0.3686440678 0.16759776536 0
          0 0 0 0 0 0
          0 0 0 0 0 0.027932960894
          0 0 0 0 0 0
          0.027932960894 0 0 0.055084745763 0.071428571429 0.040345821326
          0.014164305949 0.012987012987 0.040345821326 0.071428571429 0.055084745763 0
          0 0.067669172932 0.11239193084 0.1074168798 0.037688442211 0.034562211982
          0.1074168798 0.11239193084 0.067669172932 0 0 0.074349442379
          0.16147308782 0.16834170854 0.12376237624 0.11286681716 0.16834170854 0.16147308782
          0.074349442379 0 0 0.084459459459 0.2 0.25806451613
          0.33860045147 0.39211618257 0.25806451613 0.2 0.084459459459 0
          0 0.093984962406 0.25360230548 0.36061381074 0.41959798995 0.46774193548
          0.36061381074 0.25360230548 0.093984962406 0 0 0.10593220339
          0.31493506494 0.40057636888 0.4447592068 0.49090909091 0.40057636888 0.31493506494
          0.10593220339 0 0 0.16759776536 0.3686440678 0.43984962406
          0.44609665428 0.49662162162 0.43984962406 0.3686440678 0.16759776536 0
          0 0.1677852349 0.36734693878 0.43891402715 0.44642857143 0.49593495935
          0.43891402715 0.36734693878 0.1677852349 0
        </DataArray>
        <DataArray type="Float64" Name="Displacement" NumberOfComponents="3" format="ascii" RangeMin="1.1078883623" RangeMax="1.1250963377">
          -0.0087641233832 1.11267468 -0.024510103139 -0.011051506096 1.1119296742 -0.02429296691
          -0.01080390973 1.1118463547 -0.024805981844 -0.010760519932 1.1113863184 -0.025115462959
          -0.010491245364 1.1113226985 -0.025949058764 -0.010498008039 1.1117512695 -0.026283976455
          -0.010164732009 1.1098279814 -0.025147999015 -0.010231889193 1.1093093542 -0.024861788875
          -0.0098797993881 1.1081673786 -0.024378175344 -0.012172386794 1.1079345912 -0.024587615799
          -0.010752877993 1.1146206894 -0.025714950917 -0.010122709877 1.1138229844 -0.026513131398
          -0.0098186529618 1.1115505315 -0.026264057452 -0.010306521419 1.1102996591 -0.025597738147
          -0.0098157275263 1.1096197474 -0.025641166633 -0.0099850340933 1.1092879859 -0.025866983725
          -0.0096688843327 1.1087730592 -0.025622894503 -0.010106590902 1.1088029153 -0.026108570418
          -0.0098464888613 1.1102330066 -0.026480251174 -0.0091427140165 1.1098189125 -0.025692920978
          -0.0097244031653 1.1151253983 -0.027436662429 -0.0087353807247 1.1133395017 -0.02781138634
          -0.0091686227926 1.1121275419 -0.027142895198 -0.0093233933314 1.1116586733 -0.027509051211
          -0.0092631565538 1.1118919369 -0.028114138377 -0.009576662276 1.111176216 -0.027975436662
          -0.0094582529071 1.11005287 -0.02749697946 -0.0097539863225 1.1094477785 -0.027095671043
          -0.010258304281 1.1096785642 -0.027884873258 -0.0093277777687 1.1104109629 -0.027495260338
          -0.0078559552301 1.1145468455 -0.029450833743 -0.0069562494538 1.1136823619 -0.028428741538
          -0.0083729101196 1.1130022521 -0.028581619326 -0.0090076857306 1.111512636 -0.028092117202
          -0.0087011454145 1.1113248673 -0.028518784121 -0.0090855793714 1.1110489954 -0.028340207105
          -0.0090121220008 1.1100691368 -0.028420158061 -0.0094362190007 1.1103721531 -0.028549989773
          -0.010953564808 1.1100130461 -0.028383660793 -0.010069778213 1.1098534104 -0.029422592452
          -0.0054511248906 1.1135168815 -0.031421484714 -0.0071793790108 1.1125294616 -0.029389255641
          -0.0078301617742 1.11302219 -0.0288512732 -0.0084607908141 1.1115347406 -0.029082194415
          -0.0086494817047 1.1113128122 -0.028767768206 -0.0085347628813 1.1114869741 -0.028613091475
          -0.0082728661583 1.1099257261 -0.029249440601 -0.0089235121081 1.1104725718 -0.028865057045
          -0.0096367042348 1.1090366046 -0.029365288453 -0.011333108666 1.1089385634 -0.031328210206
          -0.0051191391845 1.1136917519 -0.032575302753 -0.0068617274996 1.1134061029 -0.029044970096
          -0.0066046725694 1.1132762905 -0.029704927909 -0.0069971302121 1.112318611 -0.029685802778
          -0.0094002593765 1.1101079703 -0.030911230405 -0.0060912387642 1.1098540894 -0.031032364276
          -0.0089145378249 1.1107771 -0.029692673213 -0.0091328173233 1.1107343738 -0.029696938332
          -0.008935794727 1.1097636635 -0.028956105894 -0.010587591802 1.109044399 -0.032494442225
          -0.0047834118185 1.1146584815 -0.032352052698 -0.005927206298 1.1135002068 -0.030014948666
          -0.0066069797166 1.1129090579 -0.030774706831 -0.0059061657111 1.1118780453 -0.030014769817
          -0.0066780322471 1.1126753089 -0.030429010059 -0.0080412543062 1.1121068192 -0.030415302204
          -0.0089241545507 1.1104590523 -0.03002484699 -0.0081977612677 1.1103248662 -0.030672708773
          -0.0089026328598 1.1099407974 -0.029975592914 -0.0097879040387 1.1099969449 -0.032177324538
          -0.0020226015264 1.1142128212 -0.033740620566 -0.007440338165 1.1141850241 -0.030088443638
          -0.0043033691 1.112806493 -0.031126070636 -0.0065544544815 1.1122960127 -0.031052825187
          -0.0045168991374 1.1108400863 -0.030086599543 -0.0091627995993 1.1103660006 -0.030128946829
          -0.0070434636336 1.1107748499 -0.031050089166 -0.0095127537638 1.1102611151 -0.03109677276
          -0.0064026522114 1.1105183038 -0.030122590679 -0.011621419386 1.1095268442 -0.033608287307
          -0.0055352908661 1.1147209744 -0.033104786242 0.0014389663212 1.1160579419 -0.035505031357
          -0.006935641106 1.1117149755 -0.032528797926 -0.0033098946396 1.1128655027 -0.031563919846
          -0.0063124952819 1.1118886884 -0.031764549964 -0.0063364155584 1.1114981559 -0.03168496455
          -0.009314264052 1.1112998302 -0.031370022027 -0.0056993184228 1.1091434169 -0.03240746612
          -0.013923197276 1.112515635 -0.035312305236 -0.00687083637 1.1100382194 -0.0328289469
          0.0011096268713 1.1182279818 -0.032666603772 -0.0021278483625 1.1147340807 -0.032777828007
          -0.0050892233649 1.1115750794 -0.03164402721 -0.0045768761391 1.1153316027 -0.028666605189
          -0.012791539463 1.1086521754 -0.039490667769 0.0012959697481 1.1082186728 -0.039455749645
          -0.0070641280491 1.1139804833 -0.028475425017 -0.0064685607701 1.108966835 -0.031628622739
          -0.0094901545216 1.1111134214 -0.032810654221 -0.01265529826 1.1138850872 -0.032316082542
          -0.011455784985 1.1164360662 -0.025237137061 -0.011767044474 1.1142002518 -0.0246438229
          -0.01079543432 1.1129613649 -0.025431537981 -0.010519903498 1.1121710626 -0.025023012938
          -0.010585934403 1.1113797902 -0.025284306627 -0.010598163732 1.1113144863 -0.025404659706
          -0.010425368213 1.1106695547 -0.025025066976 -0.010208420894 1.1102080355 -0.025205029683
          -0.0091744152747 1.1105951374 -0.024519809087 -0.009573041254 1.1117438589 -0.025127280103
          -0.010907376093 1.1173971182 -0.027688561476 -0.010125952733 1.1136882555 -0.026582581529
          -0.0094896136958 1.1127168153 -0.026837216742 -0.0098095230829 1.1119842384 -0.026332653118
          -0.010118102395 1.1119740007 -0.026727534757 -0.010014167061 1.1109095784 -0.026154955936
          -0.010161557671 1.1104815998 -0.026386737342 -0.010467674222 1.1101061696 -0.026766081331
          -0.0097752565809 1.1099981685 -0.026519589593 -0.0090597902086 1.1129160046 -0.027864267761
          -0.0083982109472 1.1147580464 -0.029364531319 -0.0090543462112 1.1137369241 -0.027286062461
          -0.0091888922922 1.1135848228 -0.027970510854 -0.0094409036433 1.1125730893 -0.027550028571
          -0.0094879466261 1.1120096411 -0.027640215209 -0.0094547745615 1.1114479322 -0.02757821803
          -0.0094738617658 1.1110965483 -0.027589479973 -0.0096885908216 1.110949411 -0.027861961593
          -0.0098832686321 1.1100911885 -0.027182956987 -0.010521389206 1.11012583 -0.029302507604
          -0.0085576658642 1.1148455145 -0.029015476392 -0.0084903561634 1.1141727071 -0.028624874502
          -0.0086742952175 1.113495208 -0.028366726112 -0.0085307735249 1.1130708897 -0.02898522269
          -0.0089281342013 1.111879738 -0.02821243392 -0.0088819854641 1.1113822317 -0.028218914092
          -0.0092850319353 1.111545236 -0.029010239115 -0.0092147028536 1.1108779506 -0.028354948243
          -0.0093379226353 1.1105611964 -0.028536197717 -0.0093509169341 1.1102261459 -0.028949284071
          -0.0076303742285 1.1156044348 -0.029688927807 -0.0075952502528 1.114353327 -0.029475226833
          -0.008206480773 1.113461078 -0.028979445969 -0.0085452701748 1.1126112954 -0.028753426942
          -0.0082766660609 1.1121532644 -0.028647759148 -0.0084004543611 1.1114974764 -0.028766784742
          -0.0083866734868 1.1111764399 -0.028663834866 -0.0086470330766 1.1108484671 -0.02892811764
          -0.0092045309867 1.1107554271 -0.029343485919 -0.0091648954038 1.1109021125 -0.029625432719
          -0.0063276872381 1.115400583 -0.030955530691 -0.0069257311068 1.1145088841 -0.029778774473
          -0.007456919218 1.1135620046 -0.029482324521 -0.0075748970924 1.1128481263 -0.029460205972
          -0.0074762029225 1.1121130547 -0.029625863513 -0.0082621758425 1.1115614046 -0.029535355481
          -0.0081467192705 1.1113182594 -0.029378376262 -0.008352564967 1.1109747319 -0.029512508878
          -0.0088109865809 1.1108541311 -0.029698999772 -0.0094693144191 1.1108032698 -0.030900350155
          -0.0069160411402 1.1150099972 -0.030132638033 -0.006898515846 1.1143260564 -0.030378165098
          -0.0064879178832 1.1134599482 -0.03080013396 -0.0063501574893 1.1128570816 -0.030471573025
          -0.0066283763574 1.1120904385 -0.030244064378 -0.0082081240727 1.1116831469 -0.030260513085
          -0.0084105818853 1.1113312702 -0.030404066441 -0.0082419888008 1.1109168823 -0.030758887526
          -0.0078713866612 1.1106796159 -0.030290599133 -0.0078989516299 1.1103281608 -0.030053839488
          -0.007521113483 1.1148539884 -0.030002550336 -0.0059519046342 1.1150841416 -0.030491749469
          -0.0062617804666 1.1134469358 -0.031073496492 -0.0057873236786 1.1129943439 -0.031124641295
          -0.0071916039189 1.1130155902 -0.031239801618 -0.0065078181365 1.1124821145 -0.03122134883
          -0.0079111034552 1.1114754913 -0.031181608286 -0.0075497216961 1.1108949627 -0.031085107447
          -0.0077637931191 1.1115071005 -0.030422685216 -0.0062297457017 1.110160057 -0.029971971468
          -0.0053541942843 1.1139936329 -0.032016231158 -0.0055858104989 1.1139934278 -0.031735852153
          -0.0057894778372 1.1135705308 -0.031495871504 -0.0057752660104 1.1130294504 -0.031632304846
          -0.0066232831525 1.1129711067 -0.032362285195 -0.0061019478309 1.1124159108 -0.032357424272
          -0.0068577994688 1.1114762511 -0.031632677983 -0.006847594001 1.1109665393 -0.031440819265
          -0.0070182684855 1.1103563078 -0.031643849297 -0.0072308810846 1.109252805 -0.031931019398
          -0.0063113303267 1.1119738102 -0.032062798512 -0.0068563748022 1.1118664138 -0.033390851423
          -0.0062919067742 1.114184713 -0.031851998767 -0.0023722175866 1.113398013 -0.03040913154
          -0.0023258491599 1.1132456997 -0.028665858137 -0.009339474925 1.112824284 -0.028384343809
          -0.0093435238025 1.111786381 -0.030558459824 -0.0052163621134 1.111506479 -0.031890938104
          -0.0046201073193 1.10830207 -0.033279090341 -0.0053215426968 1.1074149324 -0.031944827951
          -0.010890144651 1.1155531868 -0.026239440647 -0.011928143337 1.1156517608 -0.025909175819
          -0.010753216603 1.1140749114 -0.026149142452 -0.01100283446 1.1140727918 -0.026636028752
          -0.010439348171 1.1125332299 -0.025444125407 -0.010469718559 1.1120845775 -0.025821699908
          -0.010037340415 1.1124133769 -0.026613189761 -0.010227606203 1.1113907488 -0.026031236079
          -0.0089547115034 1.1120407019 -0.025876160986 -0.010116248642 1.111000628 -0.026196381614
          -0.011506889144 1.11719704 -0.026511237358 -0.0099593949236 1.1150795729 -0.027222550552
          -0.010324693794 1.1140719501 -0.026581744387 -0.0099958520163 1.1131938998 -0.026665509936
          -0.0099922840341 1.1126807382 -0.026641261683 -0.009954263021 1.112207901 -0.026626008856
          -0.0099682845656 1.1115705637 -0.026606248985 -0.0096306138342 1.1114630047 -0.026551946151
          -0.010007697418 1.1114314279 -0.027152373699 -0.0083859293709 1.1125354293 -0.026430865521
          -0.0095237912811 1.1155558725 -0.027587936899 -0.0087849877406 1.1145092908 -0.027804081476
          -0.0094596845963 1.1142953295 -0.027659019851 -0.0095279332405 1.1132400849 -0.027436520149
          -0.0094766040615 1.1127953543 -0.027523566904 -0.009400352733 1.1121824379 -0.027597746379
          -0.0094023725437 1.1117316789 -0.02742568078 -0.0094716783957 1.1117051282 -0.027647642436
          -0.010120442604 1.1108897588 -0.027725342531 -0.0093851344575 1.1108670928 -0.027553116651
          -0.0089781380721 1.1159455921 -0.028576369829 -0.0091417612171 1.1150202458 -0.028348016161
          -0.0089681259496 1.1140935973 -0.028227304135 -0.0089899358984 1.1133706583 -0.028378270332
          -0.0089777351283 1.1127158951 -0.02823991034 -0.0089461775131 1.1121819254 -0.028353356929
          -0.0088528627106 1.1118193955 -0.028385834171 -0.008913578579 1.1114997018 -0.028190910158
          -0.0087292286012 1.1113864063 -0.028284097262 -0.0088897277079 1.1112543207 -0.028476770883
          -0.0083643155157 1.1157470734 -0.028860442806 -0.0084404168723 1.114811907 -0.028959756991
          -0.0082286450588 1.1141412859 -0.028964819216 -0.0084759530596 1.113383356 -0.028975693805
          -0.008414507848 1.1126937345 -0.029049194939 -0.0084017638183 1.1122256004 -0.029009987765
          -0.0083803142076 1.1118375648 -0.028956388513 -0.0085913223149 1.1115841874 -0.028941590474
          -0.0084261487491 1.1111768759 -0.028925064197 -0.0084662549094 1.1110800872 -0.028809084115
          -0.0074933726935 1.1157516633 -0.029580276202 -0.0071531022313 1.1149818424 -0.029853601241
          -0.0073269560076 1.1142231931 -0.02974784021 -0.0075301948316 1.1137070672 -0.02974774492
          -0.0077222242043 1.112773232 -0.029833487324 -0.0081209181853 1.1122363909 -0.029822567955
          -0.0082264181789 1.1121216614 -0.029719884514 -0.0084925286915 1.1116822766 -0.029736949072
          -0.0086503968329 1.1113543775 -0.029789940744 -0.00826257962 1.1110260305 -0.02944427424
          -0.006091302377 1.1159126091 -0.030986836652 -0.0065508996256 1.1149657191 -0.030629773287
          -0.0070722190524 1.1142148109 -0.030411341618 -0.0070191283617 1.1134491076 -0.030554854126
          -0.0065361857242 1.1129843743 -0.030102669544 -0.0082113783323 1.1124508492 -0.030066933315
          -0.0077951428429 1.1119193905 -0.030490362402 -0.00773875208 1.1116505865 -0.030382913318
          -0.0082366515136 1.1113659928 -0.030561302324 -0.0086313715924 1.1112910714 -0.030860221338
          -0.006319404648 1.1158437953 -0.03050279419 -0.0052156662037 1.1152923658 -0.031381250038
          -0.0056288168439 1.1141583851 -0.031230587404 -0.0069583764579 1.1139199327 -0.031031543992
          -0.0061703872723 1.1133014818 -0.030920958943 -0.007539276477 1.1126542021 -0.031087499609
          -0.0068087894313 1.1123187145 -0.03100274574 -0.0081466060671 1.111606111 -0.031179208854
          -0.0084284385087 1.1116666587 -0.031341687101 -0.0074399595836 1.1112131734 -0.030406290713
          -0.0055118576241 1.1164148123 -0.031925214443 -0.0057964713196 1.1147200034 -0.032178848705
          -0.0048796973415 1.1145657903 -0.032010489953 -0.0055091407911 1.1137152172 -0.032006257388
          -0.0072644955942 1.1132068072 -0.033068363242 -0.0053630113985 1.1127227033 -0.033140991188
          -0.007170594 1.112185232 -0.031992866512 -0.0077459341257 1.1119648243 -0.031990575023
          -0.0068672712886 1.1110500758 -0.032137972784 -0.0071433849013 1.1116811633 -0.031823085104
          -0.0024097017085 1.1181317769 -0.030807912844 -0.0019453323325 1.1173904205 -0.031622708938
          -0.0039041545404 1.1162543594 -0.030229666807 -0.0066214557587 1.1155170246 -0.030801966813
          -0.0013438139391 1.1101246914 -0.032074616759 -0.010428554223 1.1095243425 -0.032060583633
          -0.004972201467 1.1139041916 -0.030781757262 -0.0076590298319 1.1136389042 -0.03028890378
          -0.0096381039532 1.1137373785 -0.03154698942 -0.0091035591631 1.1133830936 -0.030821845863
          -0.010142154689 1.1155076098 -0.026733644187 -0.010515165394 1.1156127073 -0.025755335279
          -0.010191627759 1.1146588606 -0.026511347774 -0.010341228283 1.1137911997 -0.025900996229
          -0.010521827463 1.1133129744 -0.025748547763 -0.010583348342 1.1128577006 -0.025855185154
          -0.01083089398 1.1120791043 -0.025827502163 -0.01082324056 1.112029662 -0.026473604403
          -0.010454997495 1.1119193155 -0.025664519287 -0.010873726564 1.1108755261 -0.026623584537
          -0.0102114294 1.1157195131 -0.026307788554 -0.010261281532 1.1152597244 -0.026640674264
          -0.010102608243 1.1148646015 -0.026906908546 -0.010134573551 1.1141516953 -0.026798954038
          -0.010040816518 1.1135335119 -0.02676510156 -0.0099196875749 1.1131227537 -0.026820795249
          -0.0098149790997 1.1126403141 -0.026788789761 -0.0098654209985 1.1121807698 -0.026896676267
          -0.0096912103939 1.1116506933 -0.026579028427 -0.0098335950046 1.1110324118 -0.0261901926
          -0.010072316683 1.1171012741 -0.027580653564 -0.0096836313343 1.1158578942 -0.02768312426
          -0.0095377603057 1.1148735145 -0.027590092166 -0.0095392465114 1.1140934237 -0.027590224872
          -0.0095345689188 1.1135029999 -0.027601034735 -0.0094559820181 1.1129679365 -0.027585227772
          -0.0093719472531 1.1125539861 -0.027586833218 -0.0093283102004 1.112263288 -0.027588196982
          -0.0092342073486 1.1122044371 -0.027631010049 -0.0088187355293 1.1124689255 -0.027501310453
          -0.0089520260877 1.1163058849 -0.028271038664 -0.0090460382061 1.1157790265 -0.028363603604
          -0.0089153356648 1.1148833354 -0.028345579147 -0.0090473829777 1.1142626456 -0.028205006721
          -0.0089669741526 1.1135363425 -0.028297157498 -0.0089427220628 1.1129389737 -0.028250449036
          -0.0087848708281 1.1127096562 -0.028180253807 -0.0089573469925 1.112304934 -0.028331998536
          -0.0088846355119 1.1121632301 -0.028303176831 -0.0089252792717 1.1116443123 -0.028189694462
          -0.0081818052975 1.1164610167 -0.029153913785 -0.0081543462374 1.1156859079 -0.029087741328
          -0.0081976759746 1.1149022351 -0.029151895651 -0.0082661767337 1.1141407773 -0.029073024456
          -0.0084281948761 1.1134890654 -0.029010549313 -0.0084271357519 1.1129695922 -0.029030780679
          -0.0085522534182 1.1126329739 -0.02903417487 -0.0086161345669 1.1123295526 -0.029094814355
          -0.0087098029479 1.1120598406 -0.029023402584 -0.0086752293774 1.111788434 -0.029045850797
          -0.0071982117397 1.1166307563 -0.029898480833 -0.007170549573 1.1156761389 -0.029861673515