<?xml version="1.0"?>
<VTKFile type="UnstructuredGrid" version="0.1" byte_order="LittleEndian" compressor="vtkZLibDataCompressor">
  <UnstructuredGrid>
    <FieldData>
      <DataArray type="Float64" Name="TIME" NumberOfTuples="1" format="ascii" RangeMin="0.2307071059" RangeMax="0.2307071059">
        0.2307071059
      </DataArray>
    </FieldData>
    <Piece NumberOfPoints="1000" NumberOfCells="0">
      <PointData>
        <DataArray type="Float64" Name="Damage" format="ascii" RangeMin="0" RangeMax="0.49719101124">
          0 0 0 0 0 0
          0 0 0 0 0 0.027932960894
          0 0 0 0 0 0
          0.027932960894 0 0 0.055084745763 0.071428571429 0.040345821326
          0.014164305949 0.012987012987 0.040345821326 0.071428571429 0.055084745763 0
          0 0.067669172932 0.11239193084 0.1074168798 0.037688442211 0.034562211982
          0.1074168798 0.11239193084 0.067669172932 0 0 0.074349442379
          0.16147308782 0.16834170854 0.12376237624 0.11286681716 0.16834170854 0.16147308782
          0.074349442379 0 0 0.084459459459 0.2 0.25806451613
          0.33860045147 0.39211618257 0.25806451613 0.2 0.084459459459 0
          0 0.093984962406 0.25360230548 0.36061381074 0.41959798995 0.46774193548
          0.36061381074 0.25360230548 0.093984962406 0 0 0.10593220339
          0.31493506494 0.40057636888 0.4447592068 0.49090909091 0.40057636888 0.31493506494
          0.10593220339 0 0 0.16759776536 0.3686440678 0.43984962406
          0.44609665428 0.49662162162 0.43984962406 0.3686440678 0.16759776536 0
          0 0.1677852349 0.36734693878 0.43891402715 0.44642857143 0.49593495935
          0.43891402715 0.36734693878 0.1677852349 0 0 0
          0 0 0 0 0 0
          0 0 0 0.027906976744 0 0
          0 0 0 0 0.027906976744 0
          0 0.056338028169 0.072776280323 0.040669856459 0.014117647059 0.012931034483
          0.040669856459 0.072776280323 0.056338028169 0 0 0.06875
          0.11483253589 0.10828025478 0.0375782881 0.034416826004 0.10828025478 0.11483253589
          0.06875 0 0 0.074303405573 0.16235294118 0.16910229645
          0.12371134021 0.11257035647 0.16910229645 0.16235294118 0.074303405573 0
          0 0.084269662921 0.20043103448 0.25812619503 0.33771106942 0.39242685026
          0.25812619503 0.20043103448 0.084269662921 0 0 0.09375
          0.25358851675 0.36093418259 0.41962421712 0.46845124283 0.36093418259 0.25358851675
          0.09375 0 0 0.10563380282 0.3153638814 0.4019138756
          0.44470588235 0.49137931034 0.4019138756 0.3153638814 0.10563380282 0
          0 0.16744186047 0.36971830986 0.440625 0.44582043344 0.49719101124
          0.440625 0.36971830986 0.16744186047 0 0 0.16759776536
          0.3686440678 0.43984962406 0.44609665428 0.49662162162 0.43984962406 0.3686440678
          0.16759776536 0 0 0 0 0
          0 0 0 0 0 0
          0 0.024647887324 0 0 0 0
          0 0 0.024647887324 0 0 0.051212938005
          0.06875 0.038817005545 0.012635379061 0.011666666667 0.038817005545 0.06875
          0.051212938005 0 0 0.064593301435 0.10905730129 0.10491803279
          0.036858974359 0.034023668639 0.10491803279 0.10905730129 0.064593301435 0
          0 0.070588235294 0.15523465704 0.16506410256 0.12283464567 0.11271676301
          0.16506410256 0.15523465704 0.070588235294 0 0 0.081896551724
          0.19333333333 0.25443786982 0.33959537572 0.38985313752 0.25443786982 0.19333333333
          0.081896551724 0 0 0.093301435407 0.24768946396 0.35573770492
          0.41987179487 0.46449704142 0.35573770492 0.24768946396 0.093301435407 0
          0 0.10781671159 0.30833333333 0.39556377079 0.4440433213 0.48666666667
          0.39556377079 0.30833333333 0.10781671159 0 0 0.16197183099
          0.35579514825 0.43062200957 0.44470588235 0.49137931034 0.43062200957 0.35579514825
          0.16197183099 0 0 0.16101694915 0.3538961039 0.42939481268
          0.4447592068 0.49090909091 0.42939481268 0.3538961039 0.16101694915 0
          0 0 0 0 0 0
          0 0 0 0 0 0.025
          0 0 0 0 0 0
          0.025 0 0 0.05023923445 0.068391866913 0.039344262295
          0.012820512821 0.011834319527 0.039344262295 0.068391866913 0.05023923445 0
          0 0.063694267516 0.10819672131 0.10465116279 0.036984352774 0.034120734908
          0.10465116279 0.10819672131 0.063694267516 0 0 0.070981210856
          0.15544871795 0.16500711238 0.12290502793 0.11282051282 0.16500711238 0.15544871795
          0.070981210856 0 0 0.082217973231 0.19378698225 0.25459317585
          0.33974358974 0.38981042654 0.25459317585 0.19378698225 0.082217973231 0
          0 0.093418259023 0.24918032787 0.35610465116 0.41963015647 0.46456692913
          0.35610465116 0.24918032787 0.093418259023 0 0 0.10765550239
          0.30868761553 0.39508196721 0.44391025641 0.48668639053 0.39508196721 0.30868761553
          0.10765550239 0 0 0.1625 0.35645933014 0.43099787686
          0.44467640919 0.4913957935 0.43099787686 0.35645933014 0.1625 0
          0 0.16165413534 0.35446685879 0.42966751918 0.44472361809 0.49078341014
          0.42966751918 0.35446685879 0.16165413534 0 0 0
          0 0 0 0 0 0
          0 0 0 0.02786377709 0 0
          0 0 0 0 0.02786377709 0
          0 0.054117647059 0.070397111913 0.040064102564 0.014173228346 0.013005780347
          0.040064102564 0.070397111913 0.054117647059 0 0 0.066805845511
          0.11057692308 0.106685633 0.037709497207 0.034615384615 0.106685633 0.11057692308
          0.066805845511 0 0 0.074226804124 0.16062992126 0.16759776536
          0.12362637363 0.11292346299 0.16759776536 0.16062992126 0.074226804124 0
          0 0.084427767355 0.19942196532 0.25769230769 0.33877038896 0.39145496536
          0.25769230769 0.19942196532 0.084427767355 0 0 0.093945720251
          0.25320512821 0.35988620199 0.41899441341 0.46666666667 0.35988620199 0.25320512821
          0.093945720251 0 0 0.10588235294 0.31407942238 0.39903846154
          0.44409448819 0.48988439306 0.39903846154 0.31407942238 0.10588235294 0
          0 0.16718266254 0.36705882353 0.43841336117 0.44536082474 0.49530956848
          0.43841336117 0.36705882353 0.16718266254 0 0 0.16728624535
          0.36543909348 0.43718592965 0.44554455446 0.49435665914 0.43718592965 0.36543909348
          0.16728624535 0 0 0 0 0
          0 0 0 0 0 0
          0 0.025280898876 0 0 0 0
          0 0 0.025280898876 0 0 0.049568965517
          0.066666666667 0.038461538462 0.013005780347 0.012016021362 0.038461538462 0.066666666667
          0.049568965517 0 0 0.06309751434 0.1050295858 0.10367454068
          0.037179487179 0.034360189573 0.10367454068 0.1050295858 0.06309751434 0
          0 0.071294559099 0.15462427746 0.1641025641 0.12296110414 0.11316397229
          0.1641025641 0.15462427746 0.071294559099 0 0 0.082616179002
          0.19359145527 0.25473933649 0.34064665127 0.38930481283 0.25473933649 0.19359145527
          0.082616179002 0 0 0.093690248566 0.24852071006 0.35564304462
          0.41923076923 0.46327014218 0.35564304462 0.24852071006 0.093690248566 0
          0 0.10775862069 0.30833333333 0.39349112426 0.4436416185 0.48598130841
          0.39349112426 0.30833333333 0.10775862069 0 0 0.16292134831
          0.35560344828 0.43021032505 0.44465290807 0.49053356282 0.43021032505 0.35560344828
          0.16292134831 0 0 0.16216216216 0.35324675325 0.42857142857
          0.44469525959 0.48962655602 0.42857142857 0.35324675325 0.16216216216 0
          0 0 0 0 0 0
          0 0 0 0 0 0.025
          0 0 0 0 0 0
          0.025 0 0 0.05023923445 0.068391866913 0.039344262295
          0.012820512821 0.011834319527 0.039344262295 0.068391866913 0.05023923445 0
          0 0.063694267516 0.10819672131 0.10465116279 0.036984352774 0.034120734908
          0.10465116279 0.10819672131 0.063694267516 0 0 0.070981210856
          0.15544871795 0.16500711238 0.12290502793 0.11282051282 0.16500711238 0.15544871795
          0.070981210856 0 0 0.082217973231 0.19378698225 0.25459317585
          0.33974358974 0.38981042654 0.25459317585 0.19378698225 0.082217973231 0
          0 0.093418259023 0.24918032787 0.35610465116 0.41963015647 0.46456692913
          0.35610465116 0.24918032787 0.093418259023 0 0 0.10765550239
          0.30868761553 0.39508196721 0.44391025641 0.48668639053 0.39508196721 0.30868761553
          0.10765550239 0 0 0.1625 0.35645933014 0.43099787686
          0.44467640919 0.4913957935 0.43099787686 0.35645933014 0.1625 0
          0 0.16165413534 0.35446685879 0.42966751918 0.44472361809 0.49078341014
          0.42966751918 0.35446685879 0.16165413534 0 0 0
          0 0 0 0 0 0
          0 0 0 0.024647887324 0 0
          0 0 0 0 0.024647887324 0
          0 0.051212938005 0.06875 0.038817005545 0.012635379061 0.011666666667
          0.038817005545 0.06875 0.051212938005 0 0 0.064593301435
          0.10905730129 0.10491803279 0.036858974359 0.034023668639 0.10491803279 0.10905730129
          0.064593301435 0 0 0.070588235294 0.15523465704 0.16506410256
          0.12283464567 0.11271676301 0.16506410256 0.15523465704 0.070588235294 0
          0 0.081896551724 0.19333333333 0.25443786982 0.33959537572 0.38985313752
          0.25443786982 0.19333333333 0.081896551724 0 0 0.093301435407
          0.24768946396 0.35573770492 0.41987179487 0.46449704142 0.35573770492 0.24768946396
          0.093301435407 0 0 0.10781671159 0.30833333333 0.39556377079
          0.4440433213 0.48666666667 0.39556377079 0.30833333333 0.10781671159 0
          0 0.16197183099 0.35579514825 0.43062200957 0.44470588235 0.49137931034
          0.43062200957 0.35579514825 0.16197183099 0 0 0.16101694915
          0.3538961039 0.42939481268 0.4447592068 0.49090909091 0.42939481268 0.3538961039
          0.16101694915 0 0 0 0 0
          0 0 0 0 0 0
          0 0.027906976744 0 0 0 0
          0 0 0.027906976744 0 0 0.056338028169
          0.072776280323 0.040669856459 0.014117647059 0.012931034483 0.040669856459 0.072776280323
          0.056338028169 0 0 0.06875 0.11483253589 0.10828025478
          0.0375782881 0.034416826004 0.10828025478 0.11483253589 0.06875 0
          0 0.074303405573 0.16235294118 0.16910229645 0.12371134021 0.11257035647
          0.16910229645 0.16235294118 0.074303405573 0 0 0.084269662921
          0.20043103448 0.25812619503 0.33771106942 0.39242685026 0.25812619503 0.20043103448
          0.084269662921 0 0 0.09375 0.25358851675 0.36093418259
          0.41962421712 0.46845124283 0.36093418259 0.25358851675 0.09375 0
          0 0.10563380282 0.3153638814 0.4019138756 0.44470588235 0.49137931034
          0.4019138756 0.3153638814 0.10563380282 0 0 0.16744186047
          0.36971830986 0.440625 0.44582043344 0.49719101124 0.440625 0.36971830986
          0.16744186047 0 0 0.16759776536 0.3686440678 0.43984962406
          0.44609665428 0.49662162162 0.43984962406 0.3686440678 0.16759776536 0
          0 0 0 0 0 0
          0 0 0 0 0 0.027932960894
          0 0 0 0 0 0
          0.027932960894 0 0 0.055084745763 0.071428571429 0.040345821326
          0.014164305949 0.012987012987 0.040345821326 0.071428571429 0.055084745763 0
          0 0.067669172932 0.11239193084 0.1074168798 0.037688442211 0.034562211982
          0.1074168798 0.11239193084 0.067669172932 0 0 0.074349442379
          0.16147308782 0.16834170854 0.12376237624 0.11286681716 0.16834170854 0.16147308782
          0.074349442379 0 0 0.084459459459 0.2 0.25806451613
          0.33860045147 0.39211618257 0.25806451613 0.2 0.084459459459 0
          0 0.093984962406 0.25360230548 0.36061381074 0.41959798995 0.46774193548
          0.36061381074 0.25360230548 0.093984962406 0 0 0.10593220339
          0.31493506494 0.40057636888 0.4447592068 0.49090909091 0.40057636888 0.31493506494
          0.10593220339 0 0 0.16759776536 0.3686440678 0.43984962406
          0.44609665428 0.49662162162 0.43984962406 0.3686440678 0.16759776536 0
          0 0.1677852349 0.36734693878 0.43891402715 0.44642857143 0.49593495935
          0.43891402715 0.36734693878 0.1677852349 0
        </DataArray>
        <DataArray type="Float64" Name="Displacement" NumberOfComponents="3" format="ascii" RangeMin="1.7627631311" RangeMax="1.7827769996">
          -0.0009593522888 1.7656938913 -0.0061254761948 -0.0039006052699 1.7707006269 -0.0081511096367
          -0.0033200180559 1.7710117347 -0.0070290143493 -0.0030378000463 1.7715082898 -0.0079830858215
          -0.0031642518063 1.7714393238 -0.0081051711948 -0.0029671368373 1.7712998844 -0.0081089119783
          -0.0030553548667 1.7710186498 -0.0079743786832 -0.0028861392168 1.7702445955 -0.007118253108
          -0.0021428399424 1.7695652113 -0.0081140076403 -0.0054016096303 1.7641178405 -0.006193939525
          -0.0039789611902 1.7713007408 -0.0084914765058 -0.0052681893986 1.771664811 -0.0058038467001
          -0.0033464436978 1.7706713264 -0.0069762296436 -0.0027125711418 1.7706232601 -0.007543457185
          -0.002873850761 1.7707618331 -0.0075180361018 -0.003071809519 1.7707648834 -0.0076859539741
          -0.0031560460632 1.7701836211 -0.0075880547537 -0.0024272880039 1.7697703438 -0.0068736297665
          -0.00058616557557 1.7704201334 -0.0057293636752 -0.0017816489604 1.7699154208 -0.0084622531864
          -0.0031960057664 1.7725268746 -0.0081287933259 -0.0024774852244 1.7715352303 -0.0079180143138
          -0.0023626994499 1.7709637442 -0.0078802068976 -0.003144290033 1.7704620398 -0.007402618995
          -0.0027844099994 1.7704380151 -0.0076847036531 -0.0027306085432 1.7705183115 -0.0077366772033
          -0.0023032740756 1.7699181419 -0.0073557215496 -0.0031800612108 1.7701249511 -0.0078614571146
          -0.0030889809447 1.7704359645 -0.0079413661936 -0.0022531130067 1.7710505081 -0.0080596063662
          -0.0019077229399 1.7715754846 -0.0084960472357 -0.0020126724622 1.7710449986 -0.0077152416314
          -0.0024518707066 1.7709073177 -0.0082297592536 -0.0025040333277 1.771039138 -0.008326764696
          -0.0025936456737 1.7705485985 -0.008078986914 -0.0026622124982 1.7703867978 -0.0081339836514
          -0.0026081124594 1.7705282316 -0.0082361700482 -0.0027085538368 1.7701283671 -0.0081971575121
          -0.0032177941784 1.7698795876 -0.0077115049511 -0.0032289861063 1.7701317195 -0.0084217917983
          -0.0017441606471 1.7715382659 -0.0086590556283 -0.001882720918 1.7715833752 -0.0083878832729
          -0.0020750351722 1.7711131903 -0.0081675265605 -0.001700052264 1.7710234454 -0.0083301882781
          -0.0023815008325 1.770101106 -0.0082910584019 -0.0022828299101 1.7702552054 -0.008400269054
          -0.0031876640069 1.7705272023 -0.0082997852903 -0.0027724505439 1.7703254504 -0.0081234935543
          -0.0030114408374 1.7704393697 -0.0083810592779 -0.0030762929993 1.7701161171 -0.0086112194664
          -0.0016185237462 1.772250118 -0.0088947755536 -0.0016955274849 1.7717494053 -0.0087200835916
          -0.0022276476636 1.771013767 -0.0088254926097 -0.0020181709178 1.7708882226 -0.0087415044481
          -0.00081294916923 1.7707505631 -0.0079220455901 -0.0038565630312 1.7705445849 -0.007810752576
          -0.0025334886964 1.7703780874 -0.0087191786837 -0.0023102550509 1.77021354 -0.0087681239261
          -0.0028693159561 1.7706197658 -0.0087246946231 -0.0028926815012 1.7707918074 -0.0088926263729
          -0.0014164634996 1.7721030943 -0.0090007000364 -0.0017267450473 1.7712900661 -0.0090090265333
          -0.0013735516457 1.7721652365 -0.008041583211 -0.0014957721034 1.7714069048 -0.0082717893518
          -0.0041910849792 1.7697199498 -0.011109047746 8.4509740521e-05 1.7695341756 -0.011170495242
          -0.0027369346047 1.7709243919 -0.0082275779104 -0.0028514657374 1.7713450114 -0.0080240263839
          -0.0025424882272 1.7701355434 -0.0090558248553 -0.0028045599852 1.7706530967 -0.0090181887305
          -0.0019630388328 1.7712048777 -0.0088903918881 -0.0018648288692 1.7717685389 -0.0085925046346
          0.00044275925248 1.7713062021 -0.0093322841787 0.0018053388935 1.7712563595 -0.0078318771814
          -0.0044228862277 1.7711703442 -0.011065051029 0.00057188093712 1.7710154335 -0.011061985471
          -0.0057597790943 1.7707920261 -0.0077833520611 -0.0043826630324 1.7705271758 -0.0093090919141
          -0.0021283408395 1.7706727489 -0.0086175150715 -0.0018688579426 1.769692223 -0.0088335052045
          -0.00059532856986 1.7702607682 -0.010404265433 -0.0026104372568 1.7729863347 -0.0072779515223
          -0.00072409246217 1.7690933425 -0.010437326602 -0.00047591352434 1.7686531535 -0.010706756349
          0.00088746714765 1.7698396041 -0.0088154385646 -0.0043410827504 1.7697151324 -0.0088385309251
          -0.0030294137075 1.7681651453 -0.010702874577 -0.0028632035394 1.7682902943 -0.010432687486
          -0.00084453554138 1.7718488356 -0.0072424403905 -0.0029635492057 1.7687694266 -0.010444018516
          5.210819232e-05 1.780522868 -0.0013049370745 -0.00022526292541 1.7639524088 -0.016793059329
          -0.0035232661917 1.7686508145 -0.011546125921 -0.0022170704546 1.767821134 -0.012985376099
          -0.0019253577715 1.7710668174 -0.0096336313825 -0.0012671231744 1.7709073129 -0.0096847388964
          -0.00097718037206 1.7673310426 -0.013017682523 0.00028592247569 1.7678881611 -0.011472821157
          -0.0031039926499 1.7626791819 -0.016921092444 -0.0030739599928 1.7792942662 -0.00079504504415
          -0.0042399125047 1.7718815497 -0.0079965060322 -0.0015678927535 1.7700763049 -0.006872479595
          -0.0028698217957 1.7708269382 -0.0067654765064 -0.0026688025787 1.7707039847 -0.0073281634956
          -0.0029071818714 1.7709119668 -0.0074008333205 -0.0031167285901 1.7708720744 -0.0076103246955
          -0.0035422334661 1.7702430727 -0.0073802371509 -0.0032517538844 1.7699457954 -0.0066295767935
          -0.0045968311302 1.7689111174 -0.0068398549885 -0.0018969031937 1.7704311127 -0.0079765835351
          -0.0028960428945 1.7728530635 -0.0089998394985 -0.0030256886518 1.7710341521 -0.006818248622
          -0.0029010846775 1.7714326056 -0.0077874456822 -0.0029463277373 1.7709806474 -0.0074787514371
          -0.0029213893676 1.7707808679 -0.0073700763381 -0.0029004766075 1.7707029258 -0.007506282411
          -0.0028895382209 1.7704330683 -0.0074174435163 -0.0029256672239 1.7706329566 -0.0077737141722
          -0.0027779937903 1.7699255731 -0.0067971926306 -0.0029161455466 1.7714104172 -0.0089848793605
          -0.0030934520209 1.7723712181 -0.0069888710832 -0.0029499171783 1.7715377745 -0.0074925807936
          -0.0028636604434 1.7713807854 -0.007922687289 -0.00278198577 1.7711184044 -0.0077964674798
          -0.0027512765905 1.770970332 -0.0078112461071 -0.0027396745085 1.7708261596 -0.007845232213
          -0.0027363283108 1.7706103048 -0.0077867230616 -0.0026380707093 1.770576071 -0.0079137594767
          -0.0025538996541 1.7704014674 -0.0074769665871 -0.0024226808546 1.7709150031 -0.007053437948
          -0.0025696846398 1.7717466168 -0.0079522322429 -0.0028206775235 1.7717876097 -0.0079598750251
          -0.0025554614895 1.771378064 -0.0080992248839 -0.0027060352581 1.771076672 -0.0078904574206
          -0.0025991777478 1.7708187944 -0.0079898175118 -0.0025648132588 1.770669106 -0.0080147884001
          -0.0024616197409 1.7705790634 -0.0078914807554 -0.002614625604 1.7705499192 -0.0080639549897
          -0.0023580097018 1.7706482729 -0.0079372127191 -0.0026109793179 1.7702609664 -0.0079808763709
          -0.0019997479339 1.7713744213 -0.0084398464977 -0.0024047502067 1.7714863188 -0.0079261990271
          -0.002337900526 1.7713964119 -0.0084736915482 -0.0023563203177 1.7712382592 -0.0082818890059
          -0.0024116901962 1.7708431942 -0.0083526359881 -0.0024213273922 1.7705724438 -0.0083958007654
          -0.0025014650835 1.7707579016 -0.0083105789586 -0.0024922491247 1.7705812508 -0.0084397921318
          -0.0024379683091 1.7703545228 -0.0079194721426 -0.0028437341699 1.7698761016 -0.0084684754116
          -0.0016188622893 1.7716589537 -0.0092088254378 -0.0023276867263 1.7714745769 -0.0085993676254
          -0.0019813571281 1.7714130848 -0.0089947686738 -0.0019499898539 1.7712463074 -0.0087837719187
          -0.0020215242554 1.7709236032 -0.0089030532504 -0.0025003756493 1.7707385683 -0.0088689450211
          -0.0026052689974 1.7707908158 -0.0087741048177 -0.0025386733669 1.7706109788 -0.008964444567
          -0.0021987008457 1.7703452926 -0.0085793427509 -0.0029076627468 1.770184268 -0.0092363732487
          -0.0011620592241 1.7719940167 -0.0094837526096 -0.0020692423614 1.771512878 -0.0087932361987
          -0.0013651466518 1.7715207611 -0.0090805518551 -0.00094807295646 1.7713467054 -0.0085798759311
          -0.0013310185346 1.7711723445 -0.0085830892758 -0.0029292011095 1.7709775115 -0.0085963875196
          -0.0032476039982 1.7708492309 -0.0085961016248 -0.0028084181351 1.7707106551 -0.0090748240208
          -0.0021411178459 1.7703765961 -0.0087969595472 -0.0030404881734 1.7705377088 -0.0095081475243
          -0.0014587159436 1.7721523904 -0.0088011529899 -0.0017587450363 1.7717111858 -0.0090427605832
          -0.0012399045134 1.7716265969 -0.0089890805594 -0.0012527342283 1.7717797438 -0.0085779449722
          -0.0011294851329 1.7710614185 -0.0085199378004 -0.0027800239896 1.7708842921 -0.0085019870675
          -0.0026259937676 1.7713008285 -0.0085453657326 -0.0026253113511 1.7708082393 -0.0089630519338
          -0.0021346845468 1.7705669818 -0.0090492345716 -0.0024207462356 1.7706966472 -0.0088034630581
          -0.0020042669672 1.7696127037 -0.010844677281 0.00017428412832 1.7724518406 -0.0096708287785
          -0.0011626267893 1.7710744822 -0.0096696084158 -0.0011488493848 1.7709747837 -0.0093919167999
          0.00045582359208 1.7704999493 -0.0079674619495 -0.0039903050825 1.770370575 -0.0079574279666
          -0.0024240054954 1.770500633 -0.0093630179332 -0.0023953369162 1.770263349 -0.0096385358095
          -0.003730461994 1.7713566875 -0.0096268722825 -0.0015243847945 1.7680533508 -0.010872699982
          -0.0019703862666 1.7709788857 -0.010026545724 0.0004630785483 1.7748188479 -0.0072257134233
          0.00079963072776 1.7730638398 -0.0080615985918 0.0011050801251 1.7701948817 -0.010744520893
          -0.0070904126164 1.7738733296 -0.011439331814 0.0039007859206 1.7737659185 -0.011425472785
          -0.0043289088916 1.7696930481 -0.01080319283 -0.0040736560802 1.7722718481 -0.0080416208406
          -0.0038173853723 1.7737730371 -0.007195239176 -0.0015335746329 1.7697750146 -0.010038056153
          -0.0033874634931 1.7723834422 -0.0079340062808 -0.0033914149727 1.7717476649 -0.0069246861512
          -0.0036344754364 1.7720128339 -0.0074547377508 -0.0031099384137 1.7713414277 -0.0072080589716
          -0.0030836571527 1.7707232467 -0.0067928359218 -0.0030739259757 1.77054452 -0.0066905242607
          -0.0030599796034 1.7708442882 -0.007187195388 -0.0025034454939 1.7712179332 -0.0074595850233
          -0.0028040682484 1.7705987716 -0.0068903375709 -0.0026889221146 1.7710269978 -0.0079392881031
          -0.0022759166332 1.7715647839 -0.0075261883762 -0.0033241183432 1.7722153639 -0.0074593233195
          -0.0031006615132 1.7721203086 -0.0078707390275 -0.0029028015924 1.7713061219 -0.0074975043992
          -0.0029117299274 1.7712392673 -0.00758260565 -0.0029219133973 1.7711035214 -0.0075973142496
          -0.0029211718201 1.7708087935 -0.0074871704366 -0.0027192007738 1.7713323944 -0.0078701923069
          -0.0024955792704 1.771096532 -0.0074615547056 -0.0035878100696 1.7700378314 -0.0075338126918
          -0.002997281956 1.7720336025 -0.0075224155532 -0.0030720462029 1.7720709681 -0.0076228925467
          -0.0027066047771 1.7717553671 -0.0079723165584 -0.0027776433933 1.771441185 -0.0078775555551
          -0.0027454872483 1.7712529969 -0.0078798481253 -0.0026781942074 1.7710616894 -0.0078905202852
          -0.0027188298293 1.7709498831 -0.0078709887974 -0.0027916057546 1.7709434896 -0.0079633022936
          -0.0024450091071 1.7709345519 -0.0076218773373 -0.0024842873825 1.7705932186 -0.0074802153059
          -0.0026846134379 1.772034295 -0.0078622113778 -0.0023708046603 1.7720216487 -0.0082554951277
          -0.0025545188192 1.7717102849 -0.0081270825098 -0.0025490017289 1.771471427 -0.0081562785146
          -0.002558147058 1.7711656894 -0.0081855306426 -0.002591964006 1.7710423238 -0.0081659885672
          -0.0026098858972 1.7709807969 -0.0081645871092 -0.0026153688753 1.7709014293 -0.0081326351178
          -0.0027833558327 1.7708850052 -0.0082415936432 -0.0025001981867 1.7705685942 -0.007851120868
          -0.0025623582089 1.7723633175 -0.0081440717304 -0.0020637619188 1.7720722494 -0.0083816455828
          -0.0022451105381 1.7716942015 -0.008400757961 -0.0023709781975 1.7715859785 -0.0084172515533
          -0.0023492242884 1.7712099471 -0.0084467278002 -0.0024563065112 1.771101217 -0.008464263604
          -0.0024760793572 1.7710992553 -0.008400421544 -0.0026095529488 1.7709050764 -0.0084024786845
          -0.0027654083136 1.7709389786 -0.0083714300358 -0.002301613209 1.7709148773 -0.0081567001977
          -0.0021548079243 1.7717883893 -0.0085535443981 -0.001870579414 1.7719930649 -0.0087012940553
          -0.0021060438396 1.7717071436 -0.0086262676228 -0.0021515268196 1.7715210917 -0.0086665650334
          -0.0020239799907 1.7712629725 -0.0087276417088 -0.0025215454271 1.7711043493 -0.0087398429606
          -0.0023887848173 1.771029152 -0.0086508982709 -0.0024298143089 1.7708992267 -0.0086173023057
          -0.0026249207784 1.7708516993 -0.0086851894988 -0.0023888797267 1.7703419014 -0.0085682570529
          -0.0023002469105 1.7720402488 -0.0085227290484 -0.0015053839694 1.7719838065 -0.0090907038444
          -0.0018824119301 1.7716865506 -0.0087899959537 -0.0015954107821 1.7715628582 -0.0087769706556
          -0.0023726090074 1.7713624833 -0.0092329247332 -0.0018322350854 1.7712088353 -0.0092080750408
          -0.0026297911373 1.7710857644 -0.008772410716 -0.0023021466507 1.7708684374 -0.0087718244992
          -0.0026550433298 1.7708333582 -0.0090822109507 -0.0019068172022 1.7705925734 -0.0085296787961
          -0.001481575758 1.7719727815 -0.0093635571332 -0.00098293748808 1.7719970529 -0.0094016928788
          -0.0015448398544 1.7715452861 -0.0094823387505 -0.0022256601924 1.7714301884 -0.0093393714653
          -0.0012153138465 1.772084763 -0.0082102944505 -0.0026401513727 1.7719175558 -0.0082409917199
          -0.0016631430498 1.7709421701 -0.0093364077927 -0.0023185194261 1.7707350024 -0.0094839828576
          -0.0028731129911 1.7708549657 -0.0094038211448 -0.0023862337972 1.7705122255 -0.0093741458268
          -0.0011089385575 1.7721727177 -0.0092119094906 -0.0021196163774 1.7704922539 -0.010014366507
          -0.0005090747524 1.7718494155 -0.0096879859931 -0.0015427248857 1.7716107667 -0.0095172221194
          -0.0016189120247 1.7721160504 -0.0081749366267 -0.0019477880629 1.7719293601 -0.0081850114578
          -0.001998915403 1.7711564204 -0.0094999882495 -0.002998370397 1.7710389422 -0.0096872781428
          -0.0014220822138 1.7693889868 -0.0099749001779 -0.0025013150513 1.7707423706 -0.0092063681524
          -0.00020601623353 1.7715923256 -0.0093836433927 -0.0034676354955 1.7704385897 -0.0087212632985
          -0.004112836142 1.7731097338 -0.0076214671364 -0.0032376440845 1.7726451759 -0.0086118809954
          0.0011446722422 1.7695301898 -0.0082004088035 -0.0043938827935 1.7694081439 -0.0081667097007
          3.0255824989e-05 1.7721360587 -0.008618610501 0.00088791964512 1.772251987 -0.0076141472112
          0.00029517480003 1.769253886 -0.0086721714446 -0.0027676498389 1.7699381498 -0.0093704507488
          -0.0039637999577 1.7730546554 -0.007169609245 -0.0032784406608 1.7720733193 -0.0074768253007
          -0.0034237191562 1.7721895483 -0.0074752611042 -0.0031284958413 1.7715226072 -0.0074258690797
          -0.0031108296955 1.7713411723 -0.0073619040883 -0.0029993714517 1.7711690705 -0.0074038388226
          -0.0030311843335 1.7710225442 -0.0073904705198 -0.0027296881645 1.7713769033 -0.007462508392
          -0.0028944583522 1.7709677587 -0.007443164639 -0.0021060039693 1.7716849041 -0.0071527952114
          -0.0025628611112 1.7724312978 -0.0078171221271 -0.0029787159017 1.7721648905 -0.0075721479807
          -0.0028008204517 1.7717968665 -0.007638719866 -0.0029010001931 1.7718272123 -0.0076611602072
          -0.002874728761 1.7714841379 -0.0075883203276 -0.0029476823521 1.7713430898 -0.0075776165057
          -0.0029238216797 1.7713508667 -0.0076633755812 -0.0030248401804 1.7709875628 -0.0076334979206
          -0.0028468787603 1.7710465951 -0.0075730177221 -0.0032749308154 1.7709145969 -0.007805153969
          -0.0019987304469 1.7718018794 -0.008073199707 -0.0022923655668 1.7721893198 -0.0080344415608
          -0.0026225354714 1.7720430913 -0.0079100034246 -0.002750014127 1.7717776441 -0.0079108747967
          -0.0027526563275 1.7715882633 -0.0078689913424 -0.0027675915964 1.7714203719 -0.0078769440224
          -0.0027392123831 1.7712926983 -0.0079034577156 -0.002871465616 1.7712326243 -0.0079115694302
          -0.0031905114429 1.7710481695 -0.0080187722667 -0.0034950396114 1.7703533787 -0.0080596789659
          -0.0022940386641 1.7722547507 -0.0082819636282 -0.0024023737811 1.7721801777 -0.0081759149733
          -0.0025258749694 1.7719412905 -0.0082208690064 -0.0025122541884 1.7717455218 -0.0081219815701
          -0.0026129240511 1.7714912751 -0.008114016715 -0.0026017114654 1.7713656744 -0.0081196450955
          -0.0026491611739 1.7712479107 -0.0081550203414 -0.0026335353831 1.7711254997 -0.0082322734056
          -0.0027492707952 1.771049055 -0.0081692610482 -0.0028729268728 1.77080655 -0.0082598303483
          -0.0022360626495 1.7721355529 -0.0084307198635 -0.0021144600348 1.7721441886 -0.008465055567
          -0.0022593210491 1.7720880706 -0.0084294745133 -0.0023217528321 1.7718027306 -0.0084341995431