<?xml version="1.0"?>
<VTKFile type="UnstructuredGrid" version="0.1" byte_order="LittleEndian" compressor="vtkZLibDataCompressor">
  <UnstructuredGrid>
    <FieldData>
      <DataArray type="Float64" Name="TIME" NumberOfTuples="1" format="ascii" RangeMin="0.23258667461" RangeMax="0.23258667461">
        0.23258667461
      </DataArray>
    </FieldData>
    <Piece NumberOfPoints="1000" NumberOfCells="0">
      <PointData>
        <DataArray type="Float64" Name="Damage" format="ascii" RangeMin="0" RangeMax="0.49719101124">
          0 0 0 0 0 0
          0 0 0 0 0 0.027932960894
          0 0 0 0 0 0
          0.027932960894 0 0 0.055084745763 0.071428571429 0.040345821326
          0.014164305949 0.012987012987 0.040345821326 0.071428571429 0.055084745763 0
          0 0.067669172932 0.11239193084 0.1074168798 0.037688442211 0.034562211982
          0.1074168798 0.11239193084 0.067669172932 0 0 0.074349442379
          0.16147308782 0.16834170854 0.12376237624 0.11286681716 0.16834170854 0.16147308782
          0.074349442379 0 0 0.084459459459 0.2 0.25806451613
          0.33860045147 0.39211618257 0.25806451613 0.2 0.084459459459 0
          0 0.093984962406 0.25360230548 0.36061381074 0.41959798995 0.46774193548
          0.36061381074 0.25360230548 0.093984962406 0 0 0.10593220339
          0.31493506494 0.40057636888 0.4447592068 0.49090909091 0.40057636888 0.31493506494
          0.10593220339 0 0 0.16759776536 0.3686440678 0.43984962406
          0.44609665428 0.49662162162 0.43984962406 0.3686440678 0.16759776536 0
          0 0.1677852349 0.36734693878 0.43891402715 0.44642857143 0.49593495935
          0.43891402715 0.36734693878 0.1677852349 0 0 0
          0 0 0 0 0 0
          0 0 0 0.027906976744 0 0
          0 0 0 0 0.027906976744 0
          0 0.056338028169 0.072776280323 0.040669856459 0.014117647059 0.012931034483
          0.040669856459 0.072776280323 0.056338028169 0 0 0.06875
          0.11483253589 0.10828025478 0.0375782881 0.034416826004 0.10828025478 0.11483253589
          0.06875 0 0 0.074303405573 0.16235294118 0.16910229645
          0.12371134021 0.11257035647 0.16910229645 0.16235294118 0.074303405573 0
          0 0.084269662921 0.20043103448 0.25812619503 0.33771106942 0.39242685026
          0.25812619503 0.20043103448 0.084269662921 0 0 0.09375
          0.25358851675 0.36093418259 0.41962421712 0.46845124283 0.36093418259 0.25358851675
          0.09375 0 0 0.10563380282 0.3153638814 0.4019138756
          0.44470588235 0.49137931034 0.4019138756 0.3153638814 0.10563380282 0
          0 0.16744186047 0.36971830986 0.440625 0.44582043344 0.49719101124
          0.440625 0.36971830986 0.16744186047 0 0 0.16759776536
          0.3686440678 0.43984962406 0.44609665428 0.49662162162 0.43984962406 0.3686440678
          0.16759776536 0 0 0 0 0
          0 0 0 0 0 0
          0 0.024647887324 0 0 0 0
          0 0 0.024647887324 0 0 0.051212938005
          0.06875 0.038817005545 0.012635379061 0.011666666667 0.038817005545 0.06875
          0.051212938005 0 0 0.064593301435 0.10905730129 0.10491803279
          0.036858974359 0.034023668639 0.10491803279 0.10905730129 0.064593301435 0
          0 0.070588235294 0.15523465704 0.16506410256 0.12283464567 0.11271676301
          0.16506410256 0.15523465704 0.070588235294 0 0 0.081896551724
          0.19333333333 0.25443786982 0.33959537572 0.38985313752 0.25443786982 0.19333333333
          0.081896551724 0 0 0.093301435407 0.24768946396 0.35573770492
          0.41987179487 0.46449704142 0.35573770492 0.24768946396 0.093301435407 0
          0 0.10781671159 0.30833333333 0.39556377079 0.4440433213 0.48666666667
          0.39556377079 0.30833333333 0.10781671159 0 0 0.16197183099
          0.35579514825 0.43062200957 0.44470588235 0.49137931034 0.43062200957 0.35579514825
          0.16197183099 0 0 0.16101694915 0.3538961039 0.42939481268
          0.4447592068 0.49090909091 0.42939481268 0.3538961039 0.16101694915 0
          0 0 0 0 0 0
          0 0 0 0 0 0.025
          0 0 0 0 0 0
          0.025 0 0 0.05023923445 0.068391866913 0.039344262295
          0.012820512821 0.011834319527 0.039344262295 0.068391866913 0.05023923445 0
          0 0.063694267516 0.10819672131 0.10465116279 0.036984352774 0.034120734908
          0.10465116279 0.10819672131 0.063694267516 0 0 0.070981210856
          0.15544871795 0.16500711238 0.12290502793 0.11282051282 0.16500711238 0.15544871795
          0.070981210856 0 0 0.082217973231 0.19378698225 0.25459317585
          0.33974358974 0.38981042654 0.25459317585 0.19378698225 0.082217973231 0
          0 0.093418259023 0.24918032787 0.35610465116 0.41963015647 0.46456692913
          0.35610465116 0.24918032787 0.093418259023 0 0 0.10765550239
          0.30868761553 0.39508196721 0.44391025641 0.48668639053 0.39508196721 0.30868761553
          0.10765550239 0 0 0.1625 0.35645933014 0.43099787686
          0.44467640919 0.4913957935 0.43099787686 0.35645933014 0.1625 0
          0 0.16165413534 0.35446685879 0.42966751918 0.44472361809 0.49078341014
          0.42966751918 0.35446685879 0.16165413534 0 0 0
          0 0 0 0 0 0
          0 0 0 0.02786377709 0 0
          0 0 0 0 0.02786377709 0
          0 0.054117647059 0.070397111913 0.040064102564 0.014173228346 0.013005780347
          0.040064102564 0.070397111913 0.054117647059 0 0 0.066805845511
          0.11057692308 0.106685633 0.037709497207 0.034615384615 0.106685633 0.11057692308
          0.066805845511 0 0 0.074226804124 0.16062992126 0.16759776536
          0.12362637363 0.11292346299 0.16759776536 0.16062992126 0.074226804124 0
          0 0.084427767355 0.19942196532 0.25769230769 0.33877038896 0.39145496536
          0.25769230769 0.19942196532 0.084427767355 0 0 0.093945720251
          0.25320512821 0.35988620199 0.41899441341 0.46666666667 0.35988620199 0.25320512821
          0.093945720251 0 0 0.10588235294 0.31407942238 0.39903846154
          0.44409448819 0.48988439306 0.39903846154 0.31407942238 0.10588235294 0
          0 0.16718266254 0.36705882353 0.43841336117 0.44536082474 0.49530956848
          0.43841336117 0.36705882353 0.16718266254 0 0 0.16728624535
          0.36543909348 0.43718592965 0.44554455446 0.49435665914 0.43718592965 0.36543909348
          0.16728624535 0 0 0 0 0
          0 0 0 0 0 0
          0 0.025280898876 0 0 0 0
          0 0 0.025280898876 0 0 0.049568965517
          0.066666666667 0.038461538462 0.013005780347 0.012016021362 0.038461538462 0.066666666667
          0.049568965517 0 0 0.06309751434 0.1050295858 0.10367454068
          0.037179487179 0.034360189573 0.10367454068 0.1050295858 0.06309751434 0
          0 0.071294559099 0.15462427746 0.1641025641 0.12296110414 0.11316397229
          0.1641025641 0.15462427746 0.071294559099 0 0 0.082616179002
          0.19359145527 0.25473933649 0.34064665127 0.38930481283 0.25473933649 0.19359145527
          0.082616179002 0 0 0.093690248566 0.24852071006 0.35564304462
          0.41923076923 0.46327014218 0.35564304462 0.24852071006 0.093690248566 0
          0 0.10775862069 0.30833333333 0.39349112426 0.4436416185 0.48598130841
          0.39349112426 0.30833333333 0.10775862069 0 0 0.16292134831
          0.35560344828 0.43021032505 0.44465290807 0.49053356282 0.43021032505 0.35560344828
          0.16292134831 0 0 0.16216216216 0.35324675325 0.42857142857
          0.44469525959 0.48962655602 0.42857142857 0.35324675325 0.16216216216 0
          0 0 0 0 0 0
          0 0 0 0 0 0.025
          0 0 0 0 0 0
          0.025 0 0 0.05023923445 0.068391866913 0.039344262295
          0.012820512821 0.011834319527 0.039344262295 0.068391866913 0.05023923445 0
          0 0.063694267516 0.10819672131 0.10465116279 0.036984352774 0.034120734908
          0.10465116279 0.10819672131 0.063694267516 0 0 0.070981210856
          0.15544871795 0.16500711238 0.12290502793 0.11282051282 0.16500711238 0.15544871795
          0.070981210856 0 0 0.082217973231 0.19378698225 0.25459317585
          0.33974358974 0.38981042654 0.25459317585 0.19378698225 0.082217973231 0
          0 0.093418259023 0.24918032787 0.35610465116 0.41963015647 0.46456692913
          0.35610465116 0.24918032787 0.093418259023 0 0 0.10765550239
          0.30868761553 0.39508196721 0.44391025641 0.48668639053 0.39508196721 0.30868761553
          0.10765550239 0 0 0.1625 0.35645933014 0.43099787686
          0.44467640919 0.4913957935 0.43099787686 0.35645933014 0.1625 0
          0 0.16165413534 0.35446685879 0.42966751918 0.44472361809 0.49078341014
          0.42966751918 0.35446685879 0.16165413534 0 0 0
          0 0 0 0 0 0
          0 0 0 0.024647887324 0 0
          0 0 0 0 0.024647887324 0
          0 0.051212938005 0.06875 0.038817005545 0.012635379061 0.011666666667
          0.038817005545 0.06875 0.051212938005 0 0 0.064593301435
          0.10905730129 0.10491803279 0.036858974359 0.034023668639 0.10491803279 0.10905730129
          0.064593301435 0 0 0.070588235294 0.15523465704 0.16506410256
          0.12283464567 0.11271676301 0.16506410256 0.15523465704 0.070588235294 0
          0 0.081896551724 0.19333333333 0.25443786982 0.33959537572 0.38985313752
          0.25443786982 0.19333333333 0.081896551724 0 0 0.093301435407
          0.24768946396 0.35573770492 0.41987179487 0.46449704142 0.35573770492 0.24768946396
          0.093301435407 0 0 0.10781671159 0.30833333333 0.39556377079
          0.4440433213 0.48666666667 0.39556377079 0.30833333333 0.10781671159 0
          0 0.16197183099 0.35579514825 0.43062200957 0.44470588235 0.49137931034
          0.43062200957 0.35579514825 0.16197183099 0 0 0.16101694915
          0.3538961039 0.42939481268 0.4447592068 0.49090909091 0.42939481268 0.3538961039
          0.16101694915 0 0 0 0 0
          0 0 0 0 0 0
          0 0.027906976744 0 0 0 0
          0 0 0.027906976744 0 0 0.056338028169
          0.072776280323 0.040669856459 0.014117647059 0.012931034483 0.040669856459 0.072776280323
          0.056338028169 0 0 0.06875 0.11483253589 0.10828025478
          0.0375782881 0.034416826004 0.10828025478 0.11483253589 0.06875 0
          0 0.074303405573 0.16235294118 0.16910229645 0.12371134021 0.11257035647
          0.16910229645 0.16235294118 0.074303405573 0 0 0.084269662921
          0.20043103448 0.25812619503 0.33771106942 0.39242685026 0.25812619503 0.20043103448
          0.084269662921 0 0 0.09375 0.25358851675 0.36093418259
          0.41962421712 0.46845124283 0.36093418259 0.25358851675 0.09375 0
          0 0.10563380282 0.3153638814 0.4019138756 0.44470588235 0.49137931034
          0.4019138756 0.3153638814 0.10563380282 0 0 0.16744186047
          0.36971830986 0.440625 0.44582043344 0.49719101124 0.440625 0.36971830986
          0.16744186047 0 0 0.16759776536 0.3686440678 0.43984962406
          0.44609665428 0.49662162162 0.43984962406 0.3686440678 0.16759776536 0
          0 0 0 0 0 0
          0 0 0 0 0 0.027932960894
          0 0 0 0 0 0
          0.027932960894 0 0 0.055084745763 0.071428571429 0.040345821326
          0.014164305949 0.012987012987 0.040345821326 0.071428571429 0.055084745763 0
          0 0.067669172932 0.11239193084 0.1074168798 0.037688442211 0.034562211982
          0.1074168798 0.11239193084 0.067669172932 0 0 0.074349442379
          0.16147308782 0.16834170854 0.12376237624 0.11286681716 0.16834170854 0.16147308782
          0.074349442379 0 0 0.084459459459 0.2 0.25806451613
          0.33860045147 0.39211618257 0.25806451613 0.2 0.084459459459 0
          0 0.093984962406 0.25360230548 0.36061381074 0.41959798995 0.46774193548
          0.36061381074 0.25360230548 0.093984962406 0 0 0.10593220339
          0.31493506494 0.40057636888 0.4447592068 0.49090909091 0.40057636888 0.31493506494
          0.10593220339 0 0 0.16759776536 0.3686440678 0.43984962406
          0.44609665428 0.49662162162 0.43984962406 0.3686440678 0.16759776536 0
          0 0.1677852349 0.36734693878 0.43891402715 0.44642857143 0.49593495935
          0.43891402715 0.36734693878 0.1677852349 0
        </DataArray>
        <DataArray type="Float64" Name="Displacement" NumberOfComponents="3" format="ascii" RangeMin="1.7457209543" RangeMax="1.7599647681">
          -0.0038091162082 1.7520734975 -0.0086136770666 -0.0030573867305 1.7517103643 -0.0068926877108
          -0.0029053962904 1.7541137065 -0.00843333492 -0.0031085875876 1.7531311896 -0.0075487609294
          -0.0031788814386 1.7528204736 -0.0073786828709 -0.0033249217836 1.7525326889 -0.0072526865332
          -0.0034627778298 1.7525820728 -0.0075409824291 -0.0035894249891 1.7531870771 -0.0083385419243
          -0.0035659565698 1.7504284697 -0.0069992275608 -0.0027357355877 1.7505330272 -0.0086200383333
          -0.0035415866949 1.7530568511 -0.0082843059782 -0.00043225570194 1.7536365318 -0.0095323566
          -0.0025941319521 1.7546790697 -0.009114369403 -0.0027361415174 1.753529791 -0.0083126718425
          -0.0029282376122 1.7531928268 -0.0079117913916 -0.0033080987787 1.7529606303 -0.0078768024798
          -0.0034974459875 1.7529071105 -0.0082196296928 -0.0036106502833 1.7538933895 -0.0091658298118
          -0.0057407743349 1.7525699348 -0.0095768689872 -0.0027735448065 1.7513911972 -0.0083568739723
          -0.0025409447044 1.7533933287 -0.008653367857 -0.0028010008524 1.7534178931 -0.0081018222914
          -0.002674807767 1.7531939515 -0.0081462139286 -0.0031172321706 1.753540062 -0.0083343056656
          -0.0029411061763 1.7527578575 -0.0078731247682 -0.0029166746727 1.7526311725 -0.0078039081002
          -0.0027000055729 1.7529748143 -0.0082864013082 -0.003210847 1.7523220741 -0.0081226135606
          -0.0030049485469 1.7522293483 -0.0080247589279 -0.0033655631602 1.7518293255 -0.0086852768603
          -0.0031527694527 1.7538916826 -0.0083921293211 -0.0030305080497 1.75400871 -0.008243769206
          -0.0027934853059 1.7532561784 -0.0088239696922 -0.0025597791021 1.753941448 -0.0090671133471
          -0.0027409867583 1.7535887146 -0.0087978942777 -0.0029037459939 1.7533592849 -0.0087945921512
          -0.0029454804029 1.7534484466 -0.0090298490974 -0.0027082038303 1.7524072894 -0.0087832993153
          -0.0024780167087 1.7527373667 -0.008187529483 -0.0024249021108 1.7523595217 -0.0084292370255
          -0.0030774461767 1.7537486187 -0.0085913558417 -0.0033755231521 1.7543366081 -0.0084162675481
          -0.0025580816751 1.7534835441 -0.0088481162893 -0.0022543102278 1.7535039556 -0.0089868486384
          -0.0023796018294 1.7532869175 -0.008736902809 -0.0023766427703 1.7531027352 -0.0090075685028
          -0.0030115959601 1.7530375232 -0.0089571963872 -0.0026078906299 1.7526367141 -0.0088041410259
          -0.0017811472659 1.7530782758 -0.0083754795507 -0.0021305666324 1.7522027824 -0.0086165000576
          -0.0029862344986 1.7540532438 -0.0089897607384 -0.0035159396078 1.7541422031 -0.0086076351823
          -0.0026787304377 1.7534950543 -0.0094487452438 -0.0024844360246 1.7535443082 -0.009314215327
          -0.0043478358566 1.7530461866 -0.010729803842 -0.00036247305867 1.7526973137 -0.010833388668
          -0.0023311284315 1.7530339559 -0.0093029172633 -0.0021529995214 1.7526371458 -0.0094069690876
          -0.0012726128963 1.7529043401 -0.0085814525955 -0.0018278555568 1.7525388085 -0.0089917989229
          -0.0027240464801 1.7534014906 -0.0096025462938 -0.0032230075508 1.75339621 -0.0093086579727
          -0.0024796684291 1.753938377 -0.009222460856 -0.002931122607 1.7542354585 -0.0089869051096
          0.00019443376917 1.7536595906 -0.007442541223 -0.0047469625276 1.7535002042 -0.0073450236426
          -0.0014940144049 1.7537331471 -0.0089380768976 -0.001970799744 1.7530399336 -0.0092141186906
          -0.0011780043612 1.7521689092 -0.0092632083256 -0.0017332950788 1.751840514 -0.0095912875206
          -0.0016510451637 1.7548150912 -0.01009662486 -0.0027885896226 1.7530626328 -0.010076649875
          -0.0045857386573 1.7532700679 -0.0097582035053 -0.0068927043273 1.7533964594 -0.011381104747
          -5.1311253643e-05 1.7534140673 -0.0082026829308 -0.0040630273053 1.7532756574 -0.0081479373852
          0.0028550280405 1.7528516155 -0.011390637425 0.00053987823593 1.7523849495 -0.0097398315507
          -0.0011972259571 1.7518321783 -0.0099912423638 -0.0025745892937 1.7532616604 -0.010165910529
          -0.0022827796633 1.7553116933 -0.0072442806482 -0.00092689458117 1.7516161512 -0.011020297244
          -0.0035930865135 1.7547023969 -0.0079091798345 -0.003745899078 1.7552416133 -0.0082555733584
          -0.0047244537588 1.7536936459 -0.010782260165 0.0009402871581 1.7535038364 -0.010716221719
          -3.5083854765e-05 1.7547213977 -0.0082273277615 -0.0001192044183 1.7538310475 -0.0079090951713
          -0.0028847131826 1.7504308874 -0.011048129389 -0.0013741554848 1.7537857505 -0.0071173991017
          -0.0022564519777 1.7536211804 -0.010296019378 -0.0021827353781 1.7570759669 -0.0069767568269
          0.00034317732331 1.7564839351 -0.0065810426296 -0.0012126010031 1.7565372925 -0.0062220438797
          -8.845284538e-05 1.7458455271 -0.01552360748 -0.0035525676354 1.7456494595 -0.015394614238
          -0.0022328980155 1.7560912025 -0.0060991564931 -0.0037419349239 1.7556046221 -0.0065253102773
          -0.0011264238533 1.7560202465 -0.0066705881742 -0.001179578403 1.7516460679 -0.01067614712
          -0.0021476615652 1.752043185 -0.0080542805878 -0.0045238252962 1.7553537245 -0.0082512689308
          -0.0031250393202 1.754783023 -0.0091218936131 -0.003259986844 1.7537839044 -0.008049577344
          -0.0030948595739 1.7534746617 -0.0077370255208 -0.0032995497899 1.7532509673 -0.0076980315454
          -0.0033173105434 1.7532121526 -0.007946441733 -0.0034548863014 1.7539935035 -0.0092025174
          -0.0020155207987 1.7541810245 -0.0082703103364 -0.0044782248484 1.7503945653 -0.0080503391064
          -0.0031476075764 1.7530353607 -0.0070451390567 -0.0028594486787 1.7545772233 -0.0086135438812
          -0.0028304096817 1.7534781063 -0.0079591083426 -0.0030987761901 1.7538758283 -0.0082024384133
          -0.003098614862 1.7536625659 -0.0081040399179 -0.0031074070383 1.7531960957 -0.0078729101737
          -0.0031286184838 1.7533916431 -0.0082203814498 -0.0034001968909 1.7526463986 -0.0079724165419
          -0.0034053810103 1.7533375465 -0.0086047589623 -0.0030831262116 1.751472815 -0.0070275238253
          -0.0016952016609 1.7536860036 -0.0088595688739 -0.0028424130986 1.7539679849 -0.0084261246327
          -0.0031130347769 1.753881557 -0.0082456018374 -0.0029039232914 1.7539525887 -0.0085812703117
          -0.0029381146285 1.7538351107 -0.0085488668086 -0.002907379753 1.753646943 -0.0085562753835
          -0.0029892661139 1.7533857277 -0.0085500675669 -0.0027644087661 1.7530215798 -0.0082441347317
          -0.0030420335104 1.7527239758 -0.0083990841782 -0.0041041782951 1.7521340991 -0.0088165422557
          -0.0030043335217 1.7540429234 -0.0088095612712 -0.0028793225837 1.7541947854 -0.0088936118758
          -0.002771105835 1.7538547186 -0.0087356263919 -0.0028851025287 1.7537777287 -0.0085241719508
          -0.0027625111039 1.753695063 -0.008668696353 -0.0027386055661 1.7535278474 -0.0086878961474
          -0.0026440071664 1.7532274263 -0.0085150794043 -0.0027483030018 1.7529647625 -0.0087047387621
          -0.0026293542098 1.7529655019 -0.0088607766913 -0.0024816205026 1.7524583394 -0.0087817879565
          -0.0029441833229 1.7537413435 -0.0086087391832 -0.0026538340117 1.7538057129 -0.0088636678141
          -0.0026918491377 1.7538283412 -0.0090390498274 -0.0026241476151 1.7538984521 -0.0089227471762
          -0.0026081110694 1.7537326877 -0.0089953002384 -0.0025762404736 1.7534977371 -0.0090375861023
          -0.0025682630811 1.7533721499 -0.0089322385549 -0.0024689864619 1.7529486614 -0.0090036976465
          -0.0024870178162 1.7525802913 -0.0088427705499 -0.0021883667436 1.752123786 -0.0085987913734
          -0.003071194708 1.7539909062 -0.008687984208 -0.0029024016722 1.7537612854 -0.009270821106
          -0.0026028976659 1.7537639944 -0.0095590865505 -0.0023947929429 1.7538254081 -0.0094238796802
          -0.002178648788 1.7538001204 -0.0093157517212 -0.0026356618876 1.7535928192 -0.0093073660887
          -0.0024704500751 1.7533131676 -0.0094022153308 -0.0022104685172 1.7528883504 -0.0095252850814
          -0.0019097028963 1.7525328663 -0.0092509422471 -0.001709909508 1.7523858012 -0.0086735809563
          -0.0031403773085 1.7541995741 -0.0085476423542 -0.0029762979326 1.7537301351 -0.0092432790979
          -0.0021593660788 1.7538801137 -0.0095826134629 -0.0022372078118 1.7538227071 -0.0095182840319
          -0.0026721968748 1.7538537897 -0.0097260629072 -0.0018097257101 1.7536489149 -0.0097757027119
          -0.0022101026046 1.7532880507 -0.0095545868973 -0.0022887529617 1.7530051134 -0.0095806508392
          -0.0014915606756 1.7524970816 -0.0092529935891 -0.0012852046576 1.7526211857 -0.008521149445
          -0.0021857480925 1.7542203727 -0.0098581702423 -0.0023374179658 1.7537180308 -0.0098005904549
          -0.0020469905515 1.7536577123 -0.0096676870973 -0.0029766826218 1.7539111002 -0.0099608152584
          -0.0025119172338 1.7531890793 -0.010381352018 -0.0015541900198 1.7530226563 -0.010401816931
          -0.0011273687701 1.7534146728 -0.0099047403052 -0.0020794699625 1.7527873927 -0.009635486658
          -0.0017465229722 1.7524890983 -0.009771126007 -0.0019055702576 1.7526374435 -0.0098481175551
          -0.0015784445061 1.7567844526 -0.0087753070572 -0.0036438117781 1.751850031 -0.010783857396
          -0.0026302979465 1.7532937335 -0.0098798998993 -0.0027032041383 1.7533801176 -0.010159939559
          -0.0040173602339 1.7545709102 -0.01047912933 0.00025708946396 1.754393586 -0.01044041991
          -0.0010042881862 1.7528631869 -0.010168193324 -0.0011129651898 1.7523907718 -0.0098774801978
          -0.00010163502407 1.7505733124 -0.010796148221 -0.0021926295821 1.7552816772 -0.0087085003135
          0.0008057747614 1.758042886 -0.0094337120882 -0.0030043050904 1.7514221496 -0.013087647911
          -0.0043964131016 1.7522497472 -0.011886691191 -0.0039425370363 1.7552503728 -0.009797852217
          0.0040838918344 1.7506711206 -0.0087019054386 -0.0076001237656 1.7504988823 -0.0086854617108
          0.00053761521849 1.754801748 -0.0097178472952 0.0010594213339 1.751406757 -0.011876035747
          -0.00022955367682 1.7501125618 -0.013090788545 -0.004002832827 1.7563670624 -0.0094068197642
          -0.0034375964153 1.7544105502 -0.0076963846221 -0.0033132919867 1.7544897751 -0.0078880028683
          -0.0033882118455 1.7542958952 -0.0077697317038 -0.0032949200108 1.7545826873 -0.0083307039193
          -0.0032892548217 1.7543676175 -0.0082390187049 -0.0032330714545 1.7541051329 -0.0081376555845
          -0.0032570156561 1.7540349063 -0.0082691819337 -0.0031517170543 1.7534394985 -0.0077550525522
          -0.0032431300596 1.7533396018 -0.0078687144762 -0.0031707008125 1.7528105126 -0.0076307543626
          -0.0035640550077 1.7555122785 -0.0078690523391 -0.0024852467098 1.7541258781 -0.0084092379436
          -0.0031060991189 1.7544883321 -0.0082764677908 -0.0031289912617 1.7541377773 -0.0081263864789
          -0.0030879608554 1.754060761 -0.0081719976893 -0.0031336788611 1.7538757728 -0.0082072044192
          -0.0031070203395 1.7535891196 -0.0081021026732 -0.0030977147414 1.7536404422 -0.0082775613892
          -0.0037292066395 1.7529115808 -0.0083960547001 -0.0025807847788 1.754019546 -0.0078696785284
          -0.0029629531381 1.7541166734 -0.0082010049099 -0.0035737822 1.7545889281 -0.0080492330522
          -0.0028739789454 1.7543547252 -0.0084853054907 -0.0029055610926 1.7542104712 -0.0084622467263
          -0.002912758433 1.7539855057 -0.0084252601371 -0.0029778483757 1.7538447492 -0.0084164652915
          -0.0029931927753 1.7536776364 -0.0084509710966 -0.0029915506741 1.7534753105 -0.0084841274261
          -0.0023361293513 1.7533509025 -0.0080584781075 -0.0029015434114 1.752546759 -0.0081664296682
          -0.0028720449899 1.7542689371 -0.0086803167462 -0.0027122308762 1.7543411364 -0.0088445176746
          -0.002765178013 1.7541948465 -0.0086909211447 -0.0027577959063 1.7541497836 -0.0086883329804
          -0.0027749714232 1.7540940411 -0.0086021521281 -0.0027594446656 1.7539283784 -0.0086392720723
          -0.002807151969 1.7536493597 -0.0086814169547 -0.002755955381 1.7533273395 -0.0086917968153
          -0.0028087841197 1.7531220253 -0.0088373735732 -0.0026305064156 1.7526906506 -0.0086330993054
          -0.0030208303834 1.7544716305 -0.0087866866484 -0.0025613571483 1.7542844994 -0.0090101291125
          -0.002603020403 1.754233498 -0.0090397660382 -0.0024898697281 1.7541887773 -0.0089524162502
          -0.0026188664309 1.7541005582 -0.008967394185 -0.0026011169488 1.7539527463 -0.008975778719
          -0.0026781665432 1.7536570356 -0.0089906114951 -0.0025838732331 1.7533743295 -0.0090533406023
          -0.0025890875099 1.7530562481 -0.0090043094315 -0.0021173918842 1.7529014358 -0.0087474479056
          -0.0030739822191 1.753873927 -0.0088954799109 -0.0023546192255 1.754233192 -0.0094105230523
          -0.0025792838624 1.7541752226 -0.0092894159529 -0.0026155293615 1.7541363444 -0.0093128266059
          -0.0025832674221 1.7540522386 -0.0093409181156 -0.0022318236756 1.753894304 -0.0093655082647
          -0.0022140564175 1.7536486779 -0.0093169764629 -0.0022401048073 1.7533272347 -0.0092990397414
          -0.0024231533993 1.7529996837 -0.009389626259 -0.001723650161 1.7523021089 -0.0088688904496
          -0.003173972893 1.7540148063 -0.0090554266828 -0.0024622182464 1.7541554093 -0.0095499161732
          -0.0025386893904 1.7541110705 -0.0094478091711 -0.0024587037343 1.7541159785 -0.0095096675406
          -0.0033287392375 1.7541358327 -0.010222680555 -0.0011463559512 1.7539868871 -0.010207545527
          -0.0020208446582 1.7535933518 -0.009513702064 -0.0018869403986 1.7532511289 -0.0094417098252
          -0.0019779255517 1.7529133142 -0.0095428375409 -0.0012686948682 1.7524282232 -0.0090307601553
          -0.0024361745722 1.754658925 -0.0095360293571 -0.0029315189326 1.753940209 -0.0095840671246
          -0.0021478470847 1.7539199896 -0.010082195916 -0.0024269905318 1.7539376173 -0.010035664702
          -0.002521670579 1.7547925614 -0.009562723896 -0.0015929235218 1.7546062034 -0.0095681173687
          -0.0016617897053 1.7534189181 -0.010038115949 -0.0019328608819 1.753044974 -0.010077135726
          -0.0011758515714 1.7527107857 -0.0095768036318 -0.0016666574021 1.7530949377 -0.0095377305293
          -0.0031978069298 1.7531146836 -0.0092061147505 -0.0018825492347 1.7534224592 -0.010692820606
          -0.0021732937426 1.7542625051 -0.010026376855 -0.0018150444924 1.7538616306 -0.010039455709
          -0.0023730908017 1.7543043845 -0.0090956948494 -0.0013132518083 1.754174997 -0.0091136591064
          -0.0019386325502 1.7533720234 -0.010019303129 -0.0015822559754 1.7534173453 -0.010013199301
          -0.0018333748093 1.752207531 -0.010663402977 -0.00052207802308 1.7514703662 -0.0091754119865
          -0.0046040026872 1.7509166441 -0.0089582490873 0.00041062167443 1.7553884401 -0.0096060286839
          -0.00044906669081 1.7542140439 -0.010429370095 -0.00055598068393 1.7528058731 -0.010481691602
          -0.0060702762333 1.755292972 -0.010767759691 0.0027076134219 1.7551503411 -0.010770628147
          -0.0028265301507 1.7523126707 -0.010438826487 -0.0029069475641 1.7533885129 -0.010344093726
          -0.0038583096861 1.7541556438 -0.0096052174743 0.0010223055402 1.7495423785 -0.0089720872963
          -0.0025563676801 1.7542775555 -0.0081150341157 -0.0031490804631 1.7547275728 -0.0083257672524
          -0.0033173075551 1.7546789721 -0.007976383322 -0.0033005475952 1.7544741926 -0.0080270394964
          -0.0032661328953 1.7541226755 -0.0078595487989 -0.0032595331792 1.7539421934 -0.0078862566054
          -0.0032669792103 1.7539293513 -0.0079892054266 -0.0032388748462 1.7538156423 -0.0079473321295
          -0.0034622391393 1.7535452043 -0.0082765303854 -0.0041102154992 1.7526401273 -0.0080941460557
          -0.0025986700346 1.7549064906 -0.0086115048229 -0.0030811413274 1.7546232643 -0.008164797475
          -0.0029923924277 1.7544930486 -0.0082278080254 -0.0030745873443 1.754552052 -0.0082299691865
          -0.0030652969642 1.7542352428 -0.0081374183659 -0.0031172657903 1.7540447393 -0.0081565687287
          -0.0031715604448 1.7540397586 -0.0082191280083 -0.0032315148948 1.7536277327 -0.0082194058884
          -0.0031275091789 1.7534445985 -0.0081580713552 -0.0035778773544 1.7533371992 -0.0085529304036
          -0.0027960733805 1.7546467226 -0.0085763117818 -0.002681500694 1.7546842718 -0.0085810686661
          -0.0028417448001 1.7545547057 -0.0085476454489 -0.0028993957159 1.7544562862 -0.0084533100007
          -0.0028837237949 1.7542736564 -0.0084683430033 -0.0029666532343 1.7541028572 -0.0084722067295
          -0.0029998180227 1.7539385207 -0.0084396355334 -0.0030289627214 1.7536832101 -0.0085354508047
          -0.003183993917 1.7534576667 -0.008558122403 -0.0030299689096 1.7531315412 -0.0085545108371
          -0.0028395555352 1.7545838842 -0.0087923606473 -0.0027449137798 1.7545060826 -0.0086985531913
          -0.0027109704443 1.754485924 -0.0086955288389 -0.0027531893994 1.7544307035 -0.0087596631535
          -0.0027009677595 1.7543811399 -0.0087665137189 -0.0027985047676 1.7541837178 -0.0087729900127
          -0.0028042624486 1.7539334418 -0.0087037022659 -0.0028147504581 1.7536333319 -0.0086757521553
          -0.0027728257014 1.7532897452 -0.0086778984111 -0.0026979482943 1.7530058975 -0.0087831647168
          -0.0026932665915 1.7542350421 -0.0089779372031 -0.0025330656811 1.7544981063 -0.0090487911446
          -0.0025474995459 1.7544336398 -0.0090114314004 -0.0025898132909 1.7544352386 -0.008947108866