<?xml version="1.0"?>
<VTKFile type="UnstructuredGrid" version="0.1" byte_order="LittleEndian" compressor="vtkZLibDataCompressor">
  <UnstructuredGrid>
    <FieldData>
      <DataArray type="Float64" Name="TIME" NumberOfTuples="1" format="ascii" RangeMin="0.29837157943" RangeMax="0.29837157943">
        0.29837157943
      </DataArray>
    </FieldData>
    <Piece NumberOfPoints="1000" NumberOfCells="0">
      <PointData>
        <DataArray type="Float64" Name="Damage" format="ascii" RangeMin="0" RangeMax="0.49719101124">
          0 0 0 0 0 0
          0 0 0 0 0 0.027932960894
          0 0 0 0 0 0
          0.027932960894 0 0 0.055084745763 0.071428571429 0.040345821326
          0.014164305949 0.012987012987 0.040345821326 0.071428571429 0.055084745763 0
          0 0.067669172932 0.11239193084 0.1074168798 0.037688442211 0.034562211982
          0.1074168798 0.11239193084 0.067669172932 0 0 0.074349442379
          0.16147308782 0.16834170854 0.12376237624 0.11286681716 0.16834170854 0.16147308782
          0.074349442379 0 0 0.084459459459 0.2 0.25806451613
          0.33860045147 0.39211618257 0.25806451613 0.2 0.084459459459 0
          0 0.093984962406 0.25360230548 0.36061381074 0.41959798995 0.46774193548
          0.36061381074 0.25360230548 0.093984962406 0 0 0.10593220339
          0.31493506494 0.40057636888 0.4447592068 0.49090909091 0.40057636888 0.31493506494
          0.10593220339 0 0 0.16759776536 0.3686440678 0.43984962406
          0.44609665428 0.49662162162 0.43984962406 0.3686440678 0.16759776536 0
          0 0.1677852349 0.36734693878 0.43891402715 0.44642857143 0.49593495935
          0.43891402715 0.36734693878 0.1677852349 0 0 0
          0 0 0 0 0 0
          0 0 0 0.027906976744 0 0
          0 0 0 0 0.027906976744 0
          0 0.056338028169 0.072776280323 0.040669856459 0.014117647059 0.012931034483
          0.040669856459 0.072776280323 0.056338028169 0 0 0.06875
          0.11483253589 0.10828025478 0.0375782881 0.034416826004 0.10828025478 0.11483253589
          0.06875 0 0 0.074303405573 0.16235294118 0.16910229645
          0.12371134021 0.11257035647 0.16910229645 0.16235294118 0.074303405573 0
          0 0.084269662921 0.20043103448 0.25812619503 0.33771106942 0.39242685026
          0.25812619503 0.20043103448 0.084269662921 0 0 0.09375
          0.25358851675 0.36093418259 0.41962421712 0.46845124283 0.36093418259 0.25358851675
          0.09375 0 0 0.10563380282 0.3153638814 0.4019138756
          0.44470588235 0.49137931034 0.4019138756 0.3153638814 0.10563380282 0
          0 0.16744186047 0.36971830986 0.440625 0.44582043344 0.49719101124
          0.440625 0.36971830986 0.16744186047 0 0 0.16759776536
          0.3686440678 0.43984962406 0.44609665428 0.49662162162 0.43984962406 0.3686440678
          0.16759776536 0 0 0 0 0
          0 0 0 0 0 0
          0 0.024647887324 0 0 0 0
          0 0 0.024647887324 0 0 0.051212938005
          0.06875 0.038817005545 0.012635379061 0.011666666667 0.038817005545 0.06875
          0.051212938005 0 0 0.064593301435 0.10905730129 0.10491803279
          0.036858974359 0.034023668639 0.10491803279 0.10905730129 0.064593301435 0
          0 0.070588235294 0.15523465704 0.16506410256 0.12283464567 0.11271676301
          0.16506410256 0.15523465704 0.070588235294 0 0 0.081896551724
          0.19333333333 0.25443786982 0.33959537572 0.38985313752 0.25443786982 0.19333333333
          0.081896551724 0 0 0.093301435407 0.24768946396 0.35573770492
          0.41987179487 0.46449704142 0.35573770492 0.24768946396 0.093301435407 0
          0 0.10781671159 0.30833333333 0.39556377079 0.4440433213 0.48666666667
          0.39556377079 0.30833333333 0.10781671159 0 0 0.16197183099
          0.35579514825 0.43062200957 0.44470588235 0.49137931034 0.43062200957 0.35579514825
          0.16197183099 0 0 0.16101694915 0.3538961039 0.42939481268
          0.4447592068 0.49090909091 0.42939481268 0.3538961039 0.16101694915 0
          0 0 0 0 0 0
          0 0 0 0 0 0.025
          0 0 0 0 0 0
          0.025 0 0 0.05023923445 0.068391866913 0.039344262295
          0.012820512821 0.011834319527 0.039344262295 0.068391866913 0.05023923445 0
          0 0.063694267516 0.10819672131 0.10465116279 0.036984352774 0.034120734908
          0.10465116279 0.10819672131 0.063694267516 0 0 0.070981210856
          0.15544871795 0.16500711238 0.12290502793 0.11282051282 0.16500711238 0.15544871795
          0.070981210856 0 0 0.082217973231 0.19378698225 0.25459317585
          0.33974358974 0.38981042654 0.25459317585 0.19378698225 0.082217973231 0
          0 0.093418259023 0.24918032787 0.35610465116 0.41963015647 0.46456692913
          0.35610465116 0.24918032787 0.093418259023 0 0 0.10765550239
          0.30868761553 0.39508196721 0.44391025641 0.48668639053 0.39508196721 0.30868761553
          0.10765550239 0 0 0.1625 0.35645933014 0.43099787686
          0.44467640919 0.4913957935 0.43099787686 0.35645933014 0.1625 0
          0 0.16165413534 0.35446685879 0.42966751918 0.44472361809 0.49078341014
          0.42966751918 0.35446685879 0.16165413534 0 0 0
          0 0 0 0 0 0
          0 0 0 0.02786377709 0 0
          0 0 0 0 0.02786377709 0
          0 0.054117647059 0.070397111913 0.040064102564 0.014173228346 0.013005780347
          0.040064102564 0.070397111913 0.054117647059 0 0 0.066805845511
          0.11057692308 0.106685633 0.037709497207 0.034615384615 0.106685633 0.11057692308
          0.066805845511 0 0 0.074226804124 0.16062992126 0.16759776536
          0.12362637363 0.11292346299 0.16759776536 0.16062992126 0.074226804124 0
          0 0.084427767355 0.19942196532 0.25769230769 0.33877038896 0.39145496536
          0.25769230769 0.19942196532 0.084427767355 0 0 0.093945720251
          0.25320512821 0.35988620199 0.41899441341 0.46666666667 0.35988620199 0.25320512821
          0.093945720251 0 0 0.10588235294 0.31407942238 0.39903846154
          0.44409448819 0.48988439306 0.39903846154 0.31407942238 0.10588235294 0
          0 0.16718266254 0.36705882353 0.43841336117 0.44536082474 0.49530956848
          0.43841336117 0.36705882353 0.16718266254 0 0 0.16728624535
          0.36543909348 0.43718592965 0.44554455446 0.49435665914 0.43718592965 0.36543909348
          0.16728624535 0 0 0 0 0
          0 0 0 0 0 0
          0 0.025280898876 0 0 0 0
          0 0 0.025280898876 0 0 0.049568965517
          0.066666666667 0.038461538462 0.013005780347 0.012016021362 0.038461538462 0.066666666667
          0.049568965517 0 0 0.06309751434 0.1050295858 0.10367454068
          0.037179487179 0.034360189573 0.10367454068 0.1050295858 0.06309751434 0
          0 0.071294559099 0.15462427746 0.1641025641 0.12296110414 0.11316397229
          0.1641025641 0.15462427746 0.071294559099 0 0 0.082616179002
          0.19359145527 0.25473933649 0.34064665127 0.38930481283 0.25473933649 0.19359145527
          0.082616179002 0 0 0.093690248566 0.24852071006 0.35564304462
          0.41923076923 0.46327014218 0.35564304462 0.24852071006 0.093690248566 0
          0 0.10775862069 0.30833333333 0.39349112426 0.4436416185 0.48598130841
          0.39349112426 0.30833333333 0.10775862069 0 0 0.16292134831
          0.35560344828 0.43021032505 0.44465290807 0.49053356282 0.43021032505 0.35560344828
          0.16292134831 0 0 0.16216216216 0.35324675325 0.42857142857
          0.44469525959 0.48962655602 0.42857142857 0.35324675325 0.16216216216 0
          0 0 0 0 0 0
          0 0 0 0 0 0.025
          0 0 0 0 0 0
          0.025 0 0 0.05023923445 0.068391866913 0.039344262295
          0.012820512821 0.011834319527 0.039344262295 0.068391866913 0.05023923445 0
          0 0.063694267516 0.10819672131 0.10465116279 0.036984352774 0.034120734908
          0.10465116279 0.10819672131 0.063694267516 0 0 0.070981210856
          0.15544871795 0.16500711238 0.12290502793 0.11282051282 0.16500711238 0.15544871795
          0.070981210856 0 0 0.082217973231 0.19378698225 0.25459317585
          0.33974358974 0.38981042654 0.25459317585 0.19378698225 0.082217973231 0
          0 0.093418259023 0.24918032787 0.35610465116 0.41963015647 0.46456692913
          0.35610465116 0.24918032787 0.093418259023 0 0 0.10765550239
          0.30868761553 0.39508196721 0.44391025641 0.48668639053 0.39508196721 0.30868761553
          0.10765550239 0 0 0.1625 0.35645933014 0.43099787686
          0.44467640919 0.4913957935 0.43099787686 0.35645933014 0.1625 0
          0 0.16165413534 0.35446685879 0.42966751918 0.44472361809 0.49078341014
          0.42966751918 0.35446685879 0.16165413534 0 0 0
          0 0 0 0 0 0
          0 0 0 0.024647887324 0 0
          0 0 0 0 0.024647887324 0
          0 0.051212938005 0.06875 0.038817005545 0.012635379061 0.011666666667
          0.038817005545 0.06875 0.051212938005 0 0 0.064593301435
          0.10905730129 0.10491803279 0.036858974359 0.034023668639 0.10491803279 0.10905730129
          0.064593301435 0 0 0.070588235294 0.15523465704 0.16506410256
          0.12283464567 0.11271676301 0.16506410256 0.15523465704 0.070588235294 0
          0 0.081896551724 0.19333333333 0.25443786982 0.33959537572 0.38985313752
          0.25443786982 0.19333333333 0.081896551724 0 0 0.093301435407
          0.24768946396 0.35573770492 0.41987179487 0.46449704142 0.35573770492 0.24768946396
          0.093301435407 0 0 0.10781671159 0.30833333333 0.39556377079
          0.4440433213 0.48666666667 0.39556377079 0.30833333333 0.10781671159 0
          0 0.16197183099 0.35579514825 0.43062200957 0.44470588235 0.49137931034
          0.43062200957 0.35579514825 0.16197183099 0 0 0.16101694915
          0.3538961039 0.42939481268 0.4447592068 0.49090909091 0.42939481268 0.3538961039
          0.16101694915 0 0 0 0 0
          0 0 0 0 0 0
          0 0.027906976744 0 0 0 0
          0 0 0.027906976744 0 0 0.056338028169
          0.072776280323 0.040669856459 0.014117647059 0.012931034483 0.040669856459 0.072776280323
          0.056338028169 0 0 0.06875 0.11483253589 0.10828025478
          0.0375782881 0.034416826004 0.10828025478 0.11483253589 0.06875 0
          0 0.074303405573 0.16235294118 0.16910229645 0.12371134021 0.11257035647
          0.16910229645 0.16235294118 0.074303405573 0 0 0.084269662921
          0.20043103448 0.25812619503 0.33771106942 0.39242685026 0.25812619503 0.20043103448
          0.084269662921 0 0 0.09375 0.25358851675 0.36093418259
          0.41962421712 0.46845124283 0.36093418259 0.25358851675 0.09375 0
          0 0.10563380282 0.3153638814 0.4019138756 0.44470588235 0.49137931034
          0.4019138756 0.3153638814 0.10563380282 0 0 0.16744186047
          0.36971830986 0.440625 0.44582043344 0.49719101124 0.440625 0.36971830986
          0.16744186047 0 0 0.16759776536 0.3686440678 0.43984962406
          0.44609665428 0.49662162162 0.43984962406 0.3686440678 0.16759776536 0
          0 0 0 0 0 0
          0 0 0 0 0 0.027932960894
          0 0 0 0 0 0
          0.027932960894 0 0 0.055084745763 0.071428571429 0.040345821326
          0.014164305949 0.012987012987 0.040345821326 0.071428571429 0.055084745763 0
          0 0.067669172932 0.11239193084 0.1074168798 0.037688442211 0.034562211982
          0.1074168798 0.11239193084 0.067669172932 0 0 0.074349442379
          0.16147308782 0.16834170854 0.12376237624 0.11286681716 0.16834170854 0.16147308782
          0.074349442379 0 0 0.084459459459 0.2 0.25806451613
          0.33860045147 0.39211618257 0.25806451613 0.2 0.084459459459 0
          0 0.093984962406 0.25360230548 0.36061381074 0.41959798995 0.46774193548
          0.36061381074 0.25360230548 0.093984962406 0 0 0.10593220339
          0.31493506494 0.40057636888 0.4447592068 0.49090909091 0.40057636888 0.31493506494
          0.10593220339 0 0 0.16759776536 0.3686440678 0.43984962406
          0.44609665428 0.49662162162 0.43984962406 0.3686440678 0.16759776536 0
          0 0.1677852349 0.36734693878 0.43891402715 0.44642857143 0.49593495935
          0.43891402715 0.36734693878 0.1677852349 0
        </DataArray>
        <DataArray type="Float64" Name="Displacement" NumberOfComponents="3" format="ascii" RangeMin="1.1333673794" RangeMax="1.1510306695">
          -0.011090115734 1.1443491599 -0.025972889472 -0.0093482845278 1.1414783522 -0.0275248521
          -0.0099994775059 1.1391017363 -0.025163398356 -0.010137884299 1.1403752474 -0.026592727747
          -0.010121453394 1.1406237725 -0.027161449336 -0.010158908197 1.1392291481 -0.026639740598
          -0.010200173415 1.1389737461 -0.02658837247 -0.010410546793 1.1365457225 -0.025079405367
          -0.011136556261 1.1380772568 -0.027422464738 -0.0093405756917 1.1398967156 -0.025702295493
          -0.0091024139486 1.1399625661 -0.026762859076 -0.0095158099981 1.1391878529 -0.025944736203
          -0.0092396824716 1.1394982545 -0.026016945731 -0.009341471457 1.1384853703 -0.025291455139
          -0.0098376507444 1.1380532151 -0.025138481378 -0.0096152019516 1.1377406182 -0.025391992853
          -0.0099419944342 1.137107944 -0.025361247456 -0.010058423413 1.1367145687 -0.025745846349
          -0.0098211972357 1.1357189496 -0.025916981609 -0.010339654535 1.1353854473 -0.026769469489
          -0.0092411702271 1.1413981181 -0.027104884222 -0.0086275718231 1.1406366615 -0.027525634287
          -0.01028369173 1.1408401996 -0.026796653165 -0.0091840576243 1.1396920005 -0.026942646387
          -0.0092232805658 1.1391237382 -0.026870324399 -0.0091764855085 1.139540148 -0.027957343911
          -0.0091700921546 1.1382504383 -0.026833553479 -0.0080107061712 1.1383243518 -0.026671377882
          -0.0097319348386 1.137119826 -0.02740792792 -0.0089304570248 1.1367794055 -0.026788978873
          -0.0088168000275 1.141181396 -0.026945510432 -0.0085749481477 1.1408703157 -0.028450800392
          -0.0082710663269 1.1400707724 -0.027636652451 -0.0086603049158 1.1396889661 -0.02745573096
          -0.0089345085379 1.1387683453 -0.027183077904 -0.0088551879788 1.1383072469 -0.027181074746
          -0.0084487450683 1.1381252446 -0.027203573884 -0.0090317598442 1.137633559 -0.027535989335
          -0.0087164576628 1.1373083313 -0.028377507676 -0.008428273347 1.136577861 -0.026747671816
          -0.0092571897425 1.1405341739 -0.026785221909 -0.0083184540203 1.1416823097 -0.028250172623
          -0.0085535076591 1.1397651712 -0.028326169454 -0.0084902615965 1.139586988 -0.028164799939
          -0.0081097441832 1.138479139 -0.028790038361 -0.0080954919635 1.1378750499 -0.028886762463
          -0.0079036818614 1.1381334113 -0.028009280864 -0.0077457700721 1.1372296872 -0.028230101053
          -0.007955795216 1.1381587889 -0.028154455634 -0.0070011419921 1.1359816836 -0.026642968155
          -0.0086867399974 1.140012787 -0.026995586234 -0.0082451083626 1.1415613242 -0.02895160041
          -0.0078715218939 1.1401657501 -0.029127393881 -0.0078177131461 1.1395997516 -0.028702021861
          -0.0097486182055 1.1389259966 -0.030859294038 -0.0055194184194 1.1381535207 -0.031104704605
          -0.0074663417412 1.1382540905 -0.028757248632 -0.0073784895854 1.1376468735 -0.028994088719
          -0.006960539603 1.138028713 -0.028914315562 -0.0066547795564 1.135393356 -0.026892453774
          -0.0066189691766 1.1419153297 -0.029067143413 -0.0072815084226 1.1418443764 -0.029437237663
          -0.0075273615708 1.1408893489 -0.028578031623 -0.0073719255538 1.1395483072 -0.029962446372
          -0.007524606975 1.1375403638 -0.029681067879 -0.0068600045026 1.1371192925 -0.029663741845
          -0.0069411994195 1.1380057594 -0.029912346646 -0.006739487511 1.1383842522 -0.028537593292
          -0.0069421769739 1.1382883485 -0.029394882076 -0.0076335193215 1.1373268357 -0.028935656782
          -0.0085365557494 1.1409238157 -0.029484455935 -0.0089414787304 1.1410322759 -0.028180455874
          -0.0057787718884 1.1403330445 -0.030652739936 -0.0071947282345 1.1393361667 -0.030937877972
          -0.0065615980583 1.1383608304 -0.031133824536 -0.00673886596 1.1378075943 -0.031165060513
          -0.0058887593162 1.1377835869 -0.031004533769 -0.0075335812143 1.1378164299 -0.030638610012
          -0.0043517240716 1.1374579664 -0.028163321209 -0.0047561644183 1.1363579125 -0.029481913851
          -0.0044092099132 1.1419645554 -0.029010813122 -0.0068920168361 1.1418482292 -0.027604891638
          -0.009237055545 1.1400546775 -0.030242513361 -0.0070577455603 1.1386394932 -0.030651151087
          -0.0036285937247 1.1409860319 -0.029412170325 -0.0086499328092 1.1403527795 -0.029248467406
          -0.0054434774545 1.1371064247 -0.030684901473 -0.003199774683 1.137481999 -0.030283866475
          -0.0052590911933 1.1383444168 -0.027470470469 -0.0081498084056 1.1374958027 -0.029157871793
          -0.0097925320158 1.1385912569 -0.03270683863 -0.0071317554785 1.1364299287 -0.034295395742
          -0.0025519885817 1.1395254373 -0.033393791459 -0.0015037066693 1.1376936653 -0.033866766995
          0.0045691471614 1.1413215402 -0.024452455271 -0.015911765651 1.1409123731 -0.024402458964
          -0.0098192987525 1.1361129012 -0.033970119121 -0.0087916782307 1.1370742315 -0.03331286482
          -0.0040915531779 1.132841925 -0.034264395544 -0.001539739899 1.1337422436 -0.032956052716
          -0.0094006303751 1.1401856007 -0.025849266552 -0.011243106397 1.1421012911 -0.026219610104
          -0.010432204635 1.1404526605 -0.02502735885 -0.0099549626813 1.1393250135 -0.024934546986
          -0.010350484694 1.1392351648 -0.024767149758 -0.010144793916 1.1388071682 -0.025221192557
          -0.010506698534 1.1378817909 -0.025071490427 -0.009949211725 1.1377583488 -0.024712861248
          -0.0090369730041 1.1385455567 -0.026148584973 -0.01095962374 1.1355948608 -0.025842728183
          -0.011754545711 1.1451561369 -0.027033918432 -0.00952988125 1.1413045644 -0.025700355593
          -0.010161800011 1.1411004648 -0.025859489766 -0.009856401881 1.1402418185 -0.026033618777
          -0.0095406053908 1.1396915525 -0.026095644196 -0.0096979099183 1.1391938108 -0.026131491274
          -0.0094677593792 1.1386577709 -0.025951931668 -0.0091650596691 1.1385013006 -0.02577886881
          -0.009837944022 1.1377609259 -0.025552799044 -0.0075406547026 1.1406066242 -0.026928067989
          -0.0084845680311 1.1422367819 -0.027251214538 -0.0092530311718 1.1416678475 -0.026949865356
          -0.009299733669 1.140644115 -0.026622512505 -0.0090723002003 1.1401066959 -0.026784560402
          -0.0091294021426 1.1396125052 -0.026708774669 -0.0091840449816 1.1391484528 -0.026782847046
          -0.0092294141749 1.1385524396 -0.026636467062 -0.009057987502 1.1381055514 -0.026602473553
          -0.0090641276797 1.1380598665 -0.026850337421 -0.0098073610327 1.1377011434 -0.02706668294
          -0.0081561876239 1.1417498498 -0.02704776265 -0.0084469384015 1.1415091771 -0.027439352262
          -0.0087327839358 1.1407924358 -0.027321396922 -0.0090493930268 1.1399040505 -0.02675451795
          -0.0086776792636 1.1397643646 -0.027630383587 -0.0086090071712 1.1392690232 -0.027615326986
          -0.0082118381091 1.13832404 -0.026672512487 -0.0085701800658 1.1382759996 -0.027253814873
          -0.0088370412917 1.1378823958 -0.027382220743 -0.0091376673129 1.1370506226 -0.026931633184
          -0.0079052590068 1.1421002691 -0.02789819582 -0.0077007901359 1.1415257278 -0.02826385343
          -0.0082175442371 1.140986532 -0.027829207871 -0.0080399505143 1.1403540341 -0.028637952955
          -0.008323856465 1.1394835356 -0.028711937412 -0.0080487510328 1.1390563227 -0.028532113839
          -0.008186607432 1.1387368183 -0.028630104517 -0.0080670232534 1.1384409926 -0.027766232369
          -0.0086130882536 1.1379599244 -0.02814549926 -0.0083516148035 1.1375776957 -0.02776350796
          -0.0070530082692 1.1416947106 -0.02945014314 -0.0075042852362 1.1414312074 -0.029019492224
          -0.007813857288 1.1409129978 -0.028864631201 -0.0081085305657 1.1401601709 -0.029190907176
          -0.0076615695367 1.1398276809 -0.029232199568 -0.007699892894 1.1392226547 -0.029281170635
          -0.0072114244526 1.1386452654 -0.029181125458 -0.0074243983711 1.1383908653 -0.028745500589
          -0.0077947701419 1.1378872267 -0.02889802581 -0.0082183467403 1.13715599 -0.029338418547
          -0.0074516925412 1.1422202708 -0.028336059476 -0.0066540452826 1.1417344125 -0.029237760074
          -0.007385991955 1.1411661073 -0.028873239397 -0.008223573412 1.1403405824 -0.030091942221
          -0.0071153306994 1.1397511606 -0.02982977315 -0.0072521989224 1.1391054288 -0.029848337612
          -0.0061121953575 1.138796735 -0.030090625725 -0.0069029477173 1.1386261388 -0.028838786085
          -0.0076212964838 1.1382099472 -0.029149532455 -0.0067970078112 1.1376596686 -0.02828111257
          -0.0067165209168 1.1415902272 -0.029342240042 -0.0063973957274 1.1416771988 -0.030123911489
          -0.0070897935556 1.1410196868 -0.030276679376 -0.0064955401286 1.140562521 -0.030434124931
          -0.0071583364082 1.1396203681 -0.031294984329 -0.0061543328174 1.1391255656 -0.031279347687
          -0.0067141038582 1.1390620772 -0.030401687314 -0.0061959783086 1.1384823708 -0.030193564358
          -0.0069123606744 1.1381437286 -0.030081099646 -0.0065921926363 1.1371041249 -0.02931335201
          -0.0054694430109 1.1441089482 -0.030170775141 -0.0059048672934 1.1419014505 -0.03087549729
          -0.0059974755168 1.1411882058 -0.031439382641 -0.0060243481506 1.1400662853 -0.031971820618
          -0.0060351040523 1.1389477694 -0.032219439621 -0.0063012013203 1.1383823325 -0.032208877045
          -0.0062515155051 1.1385295182 -0.031954886924 -0.0062637727343 1.1386625668 -0.031405377236
          -0.0063796761457 1.1384015515 -0.030778054837 -0.0069490304113 1.1396467996 -0.03020350444
          0.00054060731057 1.1460325436 -0.037205534174 -0.0043665652835 1.1418241233 -0.033291145901
          -0.0060605695407 1.1400591754 -0.033842121174 -0.0020761532612 1.1400433196 -0.032643847878
          -0.0018739293559 1.1373722743 -0.030936603612 -0.0094074505708 1.1368407703 -0.031052938497
          -0.0092753932997 1.1383629913 -0.032718032476 -0.0053208670617 1.1374185791 -0.033799778754
          -0.0071034562718 1.1381564956 -0.033305898467 -0.011866162979 1.1414730105 -0.037116935131
          -0.010262470625 1.1429544404 -0.025583275643 -0.010387326399 1.1421642614 -0.025487655706
          -0.010487559468 1.1419690771 -0.025217635263 -0.010166431182 1.1408109468 -0.025056272321
          -0.010343846793 1.1408758338 -0.02576709183 -0.010090546564 1.1403003098 -0.025769763285
          -0.010176067248 1.1393404136 -0.025109619887 -0.0099237285027 1.1393682784 -0.025187767694
          -0.010077075949 1.1386658865 -0.025372909176 -0.010009498714 1.1384293123 -0.025527751901
          -0.009731878209 1.1429898922 -0.026111428779 -0.010200579759 1.1422785864 -0.025637627947
          -0.0097555982049 1.1421198718 -0.026506950902 -0.0097798097977 1.1411758673 -0.026144674402
          -0.0096999604984 1.1405094688 -0.026076383465 -0.0096766011951 1.1399836413 -0.026040348899
          -0.0096334095197 1.1396690992 -0.026129368856 -0.0096242881638 1.139564685 -0.026426334486
          -0.0091526992517 1.1386752734 -0.025513065482 -0.0096826462808 1.1383250681 -0.025985844727
          -0.0093951492989 1.1435281956 -0.027114560463 -0.0097693356274 1.1425914345 -0.026623465656
          -0.0091220890533 1.1416064585 -0.026738485732 -0.0091523719808 1.1410205101 -0.026822598194
          -0.0091391193771 1.140592062 -0.02687960063 -0.0091754294347 1.1399915628 -0.026896540976
          -0.0092181560956 1.1395148962 -0.026761504983 -0.0092298345064 1.139039527 -0.026615771879
          -0.0086311178839 1.1390421543 -0.026521936886 -0.0089296771686 1.1388921337 -0.026969188146
          -0.0082060531341 1.1425548749 -0.027615925362 -0.0083825661561 1.1423026008 -0.027450968592
          -0.0085978460957 1.1416678475 -0.027439357239 -0.0086262986994 1.1411192976 -0.027587388564
          -0.0087256908139 1.1405436576 -0.027591063133 -0.0086717684757 1.1400648451 -0.027621588518
          -0.0086773599223 1.139596741 -0.027548707616 -0.0087588694141 1.1391084004 -0.027346432679
          -0.0090373531985 1.1387488632 -0.027386749016 -0.0091271397323 1.1380134244 -0.027478036884
          -0.0079534565152 1.1428887993 -0.028001073634 -0.0077732405401 1.1423004029 -0.028160608656
          -0.0078539682361 1.1417541689 -0.028173511451 -0.0080433319505 1.1411779257 -0.028279122696
          -0.0081487831541 1.140494952 -0.028405265722 -0.0081987241173 1.1399681032 -0.028335666593
          -0.0083200778206 1.1396215296 -0.028241146726 -0.0084508883992 1.1392303902 -0.028121909175
          -0.0085531577644 1.1387462893 -0.028057285897 -0.0084098214822 1.1383195786 -0.027906728039
          -0.0072949125551 1.1427583781 -0.028730651979 -0.007713094157 1.142346004 -0.028584438414
          -0.0076762129786 1.1416887873 -0.028809217306 -0.0076076562964 1.141145007 -0.029068987517
          -0.0075087576938 1.1404685497 -0.029080187826 -0.007703433133 1.1399215527 -0.029137954503
          -0.0077540267831 1.1397288564 -0.029054078928 -0.0075760628875 1.1391726994 -0.028770417558
          -0.0075836269763 1.1387882737 -0.028481604705 -0.0080526097672 1.1382372976 -0.02864126796
          -0.0060702434288 1.1432428106 -0.030222431237 -0.0075205783635 1.1423493818 -0.02913053498
          -0.0070889835733 1.141853635 -0.029516555162 -0.0068798392229 1.1412354683 -0.029475072885
          -0.0071602720477 1.1403458631 -0.030028346819 -0.0071880481068 1.1398146913 -0.030006235864
          -0.0074136863668 1.1396780565 -0.029534617792 -0.0071912796636 1.1393158433 -0.029482785727
          -0.0068074503114 1.1387934829 -0.029079538412 -0.0082582044439 1.1386958205 -0.030194716929
          -0.0065041766205 1.1434102972 -0.029142026051 -0.0056728938752 1.1428731503 -0.030085081216
          -0.0053414013637 1.1421665923 -0.030125718523 -0.0060621410357 1.1409425821 -0.030743810586
          -0.0056803860887 1.1400143323 -0.030699455239 -0.0076245069211 1.1395714595 -0.030570553725
          -0.0072245605591 1.1394443448 -0.030686552902 -0.0079320322727 1.1396627815 -0.030071064079
          -0.0076178321258 1.1393617938 -0.029998938138 -0.006858331945 1.1389125827 -0.029114062446
          -0.0058728482932 1.1424345822 -0.030320822481 -0.0057221970924 1.1432319428 -0.030271153109
          -0.0049056852334 1.1425313471 -0.030701183232 -0.0059359763703 1.1417182199 -0.03088787648
          -0.0064436052253 1.1407864887 -0.031754281601 -0.0058096025742 1.1403192259 -0.031710339486
          -0.0063429664471 1.1401800723 -0.030895316937 -0.007371325462 1.1400258385 -0.030654393422
          -0.0065399762788 1.1396802828 -0.030247102056 -0.006358710522 1.1378498567 -0.030265000974
          -0.008067322695 1.1419166282 -0.030797125566 -0.0033839181109 1.1444052863 -0.03090634957
          -0.0034896945717 1.1440301169 -0.030378826453 -0.0041472978496 1.1425070247 -0.030835076421
          -0.0031531380586 1.1395925864 -0.032430665667 -0.0081774682818 1.1391149444 -0.032466432675
          -0.0071024712446 1.1410622048 -0.030858734038 -0.0077262124889 1.1414816039 -0.030350911745
          -0.0079300132627 1.1409528177 -0.030888413076 -0.0032727260303 1.1372719113 -0.030861045232
          -0.0095971715141 1.1430262937 -0.025692319177 -0.009922343587 1.1421713265 -0.025476531438
          -0.010266803845 1.1420573083 -0.024993333888 -0.010589923833 1.1420623446 -0.025705388153
          -0.010311076865 1.141241908 -0.025722618309 -0.010023675858 1.1407792375 -0.025509705886
          -0.0097327292421 1.1406566343 -0.02571307395 -0.010190104639 1.139498908 -0.024911378557
          -0.010626941967 1.1385759486 -0.025396451066 -0.0107442167 1.1384843231 -0.025592505217
          -0.0090111006028 1.1427692238 -0.026305609826 -0.0098108500326 1.143253587 -0.026490088412
          -0.0096175764476 1.1421717061 -0.026110982959 -0.0097287786039 1.1417871556 -0.026137136548
          -0.0096920990805 1.1412335916 -0.026129345643 -0.0097118224191 1.1406417196 -0.026092071513
          -0.0097173949438 1.140244453 -0.026080175408 -0.0097700980074 1.1396660082 -0.026098872887
          -0.0095821398302 1.1396503175 -0.026428418776 -0.010441580681 1.1380504158 -0.026271630458
          -0.0096410196227 1.1438695709 -0.026600856622 -0.0088541347408 1.1426569057 -0.0266645006
          -0.0091235269365 1.1422698039 -0.026846535777 -0.0090935704117 1.1417369875 -0.026877844757
          -0.0091630162165 1.1412877796 -0.026832095615 -0.0091842227912 1.1407231646 -0.026848286335
          -0.0092727842727 1.1402287123 -0.026824503565 -0.009261768317 1.1397136021 -0.026788306468
          -0.0095509266318 1.1391299881 -0.026604475747 -0.0088117869449 1.1392310119 -0.026517649235
          -0.0084930456525 1.1437914456 -0.027566257499 -0.0081971824497 1.1429022285 -0.027498545619
          -0.0085068772216 1.142437096 -0.027482859109 -0.0086366909491 1.1419374716 -0.027444022031
          -0.0086134135908 1.1412537236 -0.027596477463 -0.0086199787684 1.1406777341 -0.027539777168
          -0.0087172276305 1.1403536272 -0.027450560158 -0.0088599446434 1.139888533 -0.027432912422
          -0.0091669574333 1.1393807253 -0.027388147638 -0.0089161344501 1.1391694772 -0.02753478182
          -0.007903607852 1.1434637226 -0.028127858648 -0.0079344631452 1.1430132927 -0.028093620713
          -0.0078957110882 1.1424597841 -0.028248932771 -0.0080480145422 1.1418921148 -0.028421534278
          -0.0081343418284 1.1412519603 -0.028296051084 -0.0081681492802 1.1407403523 -0.02837763701
          -0.008339879906 1.140348891 -0.028340326791 -0.0084629446814 1.1399132653 -0.028176059591
          -0.0084121253352 1.1394521501 -0.027987353004 -0.0084495648556 1.1389188902 -0.028068596133