<?xml version="1.0"?>
<VTKFile type="UnstructuredGrid" version="0.1" byte_order="LittleEndian" compressor="vtkZLibDataCompressor">
  <UnstructuredGrid>
    <FieldData>
      <DataArray type="Float64" Name="TIME" NumberOfTuples="1" format="ascii" RangeMin="0.22614243904" RangeMax="0.22614243904">
        0.22614243904
      </DataArray>
    </FieldData>
    <Piece NumberOfPoints="1000" NumberOfCells="0">
      <PointData>
        <DataArray type="Float64" Name="Damage" format="ascii" RangeMin="0" RangeMax="0.49719101124">
          0 0 0 0 0 0
          0 0 0 0 0 0.027932960894
          0 0 0 0 0 0
          0.027932960894 0 0 0.055084745763 0.071428571429 0.040345821326
          0.014164305949 0.012987012987 0.040345821326 0.071428571429 0.055084745763 0
          0 0.067669172932 0.11239193084 0.1074168798 0.037688442211 0.034562211982
          0.1074168798 0.11239193084 0.067669172932 0 0 0.074349442379
          0.16147308782 0.16834170854 0.12376237624 0.11286681716 0.16834170854 0.16147308782
          0.074349442379 0 0 0.084459459459 0.2 0.25806451613
          0.33860045147 0.39211618257 0.25806451613 0.2 0.084459459459 0
          0 0.093984962406 0.25360230548 0.36061381074 0.41959798995 0.46774193548
          0.36061381074 0.25360230548 0.093984962406 0 0 0.10593220339
          0.31493506494 0.40057636888 0.4447592068 0.49090909091 0.40057636888 0.31493506494
          0.10593220339 0 0 0.16759776536 0.3686440678 0.43984962406
          0.44609665428 0.49662162162 0.43984962406 0.3686440678 0.16759776536 0
          0 0.1677852349 0.36734693878 0.43891402715 0.44642857143 0.49593495935
          0.43891402715 0.36734693878 0.1677852349 0 0 0
          0 0 0 0 0 0
          0 0 0 0.027906976744 0 0
          0 0 0 0 0.027906976744 0
          0 0.056338028169 0.072776280323 0.040669856459 0.014117647059 0.012931034483
          0.040669856459 0.072776280323 0.056338028169 0 0 0.06875
          0.11483253589 0.10828025478 0.0375782881 0.034416826004 0.10828025478 0.11483253589
          0.06875 0 0 0.074303405573 0.16235294118 0.16910229645
          0.12371134021 0.11257035647 0.16910229645 0.16235294118 0.074303405573 0
          0 0.084269662921 0.20043103448 0.25812619503 0.33771106942 0.39242685026
          0.25812619503 0.20043103448 0.084269662921 0 0 0.09375
          0.25358851675 0.36093418259 0.41962421712 0.46845124283 0.36093418259 0.25358851675
          0.09375 0 0 0.10563380282 0.3153638814 0.4019138756
          0.44470588235 0.49137931034 0.4019138756 0.3153638814 0.10563380282 0
          0 0.16744186047 0.36971830986 0.440625 0.44582043344 0.49719101124
          0.440625 0.36971830986 0.16744186047 0 0 0.16759776536
          0.3686440678 0.43984962406 0.44609665428 0.49662162162 0.43984962406 0.3686440678
          0.16759776536 0 0 0 0 0
          0 0 0 0 0 0
          0 0.024647887324 0 0 0 0
          0 0 0.024647887324 0 0 0.051212938005
          0.06875 0.038817005545 0.012635379061 0.011666666667 0.038817005545 0.06875
          0.051212938005 0 0 0.064593301435 0.10905730129 0.10491803279
          0.036858974359 0.034023668639 0.10491803279 0.10905730129 0.064593301435 0
          0 0.070588235294 0.15523465704 0.16506410256 0.12283464567 0.11271676301
          0.16506410256 0.15523465704 0.070588235294 0 0 0.081896551724
          0.19333333333 0.25443786982 0.33959537572 0.38985313752 0.25443786982 0.19333333333
          0.081896551724 0 0 0.093301435407 0.24768946396 0.35573770492
          0.41987179487 0.46449704142 0.35573770492 0.24768946396 0.093301435407 0
          0 0.10781671159 0.30833333333 0.39556377079 0.4440433213 0.48666666667
          0.39556377079 0.30833333333 0.10781671159 0 0 0.16197183099
          0.35579514825 0.43062200957 0.44470588235 0.49137931034 0.43062200957 0.35579514825
          0.16197183099 0 0 0.16101694915 0.3538961039 0.42939481268
          0.4447592068 0.49090909091 0.42939481268 0.3538961039 0.16101694915 0
          0 0 0 0 0 0
          0 0 0 0 0 0.025
          0 0 0 0 0 0
          0.025 0 0 0.05023923445 0.068391866913 0.039344262295
          0.012820512821 0.011834319527 0.039344262295 0.068391866913 0.05023923445 0
          0 0.063694267516 0.10819672131 0.10465116279 0.036984352774 0.034120734908
          0.10465116279 0.10819672131 0.063694267516 0 0 0.070981210856
          0.15544871795 0.16500711238 0.12290502793 0.11282051282 0.16500711238 0.15544871795
          0.070981210856 0 0 0.082217973231 0.19378698225 0.25459317585
          0.33974358974 0.38981042654 0.25459317585 0.19378698225 0.082217973231 0
          0 0.093418259023 0.24918032787 0.35610465116 0.41963015647 0.46456692913
          0.35610465116 0.24918032787 0.093418259023 0 0 0.10765550239
          0.30868761553 0.39508196721 0.44391025641 0.48668639053 0.39508196721 0.30868761553
          0.10765550239 0 0 0.1625 0.35645933014 0.43099787686
          0.44467640919 0.4913957935 0.43099787686 0.35645933014 0.1625 0
          0 0.16165413534 0.35446685879 0.42966751918 0.44472361809 0.49078341014
          0.42966751918 0.35446685879 0.16165413534 0 0 0
          0 0 0 0 0 0
          0 0 0 0.02786377709 0 0
          0 0 0 0 0.02786377709 0
          0 0.054117647059 0.070397111913 0.040064102564 0.014173228346 0.013005780347
          0.040064102564 0.070397111913 0.054117647059 0 0 0.066805845511
          0.11057692308 0.106685633 0.037709497207 0.034615384615 0.106685633 0.11057692308
          0.066805845511 0 0 0.074226804124 0.16062992126 0.16759776536
          0.12362637363 0.11292346299 0.16759776536 0.16062992126 0.074226804124 0
          0 0.084427767355 0.19942196532 0.25769230769 0.33877038896 0.39145496536
          0.25769230769 0.19942196532 0.084427767355 0 0 0.093945720251
          0.25320512821 0.35988620199 0.41899441341 0.46666666667 0.35988620199 0.25320512821
          0.093945720251 0 0 0.10588235294 0.31407942238 0.39903846154
          0.44409448819 0.48988439306 0.39903846154 0.31407942238 0.10588235294 0
          0 0.16718266254 0.36705882353 0.43841336117 0.44536082474 0.49530956848
          0.43841336117 0.36705882353 0.16718266254 0 0 0.16728624535
          0.36543909348 0.43718592965 0.44554455446 0.49435665914 0.43718592965 0.36543909348
          0.16728624535 0 0 0 0 0
          0 0 0 0 0 0
          0 0.025280898876 0 0 0 0
          0 0 0.025280898876 0 0 0.049568965517
          0.066666666667 0.038461538462 0.013005780347 0.012016021362 0.038461538462 0.066666666667
          0.049568965517 0 0 0.06309751434 0.1050295858 0.10367454068
          0.037179487179 0.034360189573 0.10367454068 0.1050295858 0.06309751434 0
          0 0.071294559099 0.15462427746 0.1641025641 0.12296110414 0.11316397229
          0.1641025641 0.15462427746 0.071294559099 0 0 0.082616179002
          0.19359145527 0.25473933649 0.34064665127 0.38930481283 0.25473933649 0.19359145527
          0.082616179002 0 0 0.093690248566 0.24852071006 0.35564304462
          0.41923076923 0.46327014218 0.35564304462 0.24852071006 0.093690248566 0
          0 0.10775862069 0.30833333333 0.39349112426 0.4436416185 0.48598130841
          0.39349112426 0.30833333333 0.10775862069 0 0 0.16292134831
          0.35560344828 0.43021032505 0.44465290807 0.49053356282 0.43021032505 0.35560344828
          0.16292134831 0 0 0.16216216216 0.35324675325 0.42857142857
          0.44469525959 0.48962655602 0.42857142857 0.35324675325 0.16216216216 0
          0 0 0 0 0 0
          0 0 0 0 0 0.025
          0 0 0 0 0 0
          0.025 0 0 0.05023923445 0.068391866913 0.039344262295
          0.012820512821 0.011834319527 0.039344262295 0.068391866913 0.05023923445 0
          0 0.063694267516 0.10819672131 0.10465116279 0.036984352774 0.034120734908
          0.10465116279 0.10819672131 0.063694267516 0 0 0.070981210856
          0.15544871795 0.16500711238 0.12290502793 0.11282051282 0.16500711238 0.15544871795
          0.070981210856 0 0 0.082217973231 0.19378698225 0.25459317585
          0.33974358974 0.38981042654 0.25459317585 0.19378698225 0.082217973231 0
          0 0.093418259023 0.24918032787 0.35610465116 0.41963015647 0.46456692913
          0.35610465116 0.24918032787 0.093418259023 0 0 0.10765550239
          0.30868761553 0.39508196721 0.44391025641 0.48668639053 0.39508196721 0.30868761553
          0.10765550239 0 0 0.1625 0.35645933014 0.43099787686
          0.44467640919 0.4913957935 0.43099787686 0.35645933014 0.1625 0
          0 0.16165413534 0.35446685879 0.42966751918 0.44472361809 0.49078341014
          0.42966751918 0.35446685879 0.16165413534 0 0 0
          0 0 0 0 0 0
          0 0 0 0.024647887324 0 0
          0 0 0 0 0.024647887324 0
          0 0.051212938005 0.06875 0.038817005545 0.012635379061 0.011666666667
          0.038817005545 0.06875 0.051212938005 0 0 0.064593301435
          0.10905730129 0.10491803279 0.036858974359 0.034023668639 0.10491803279 0.10905730129
          0.064593301435 0 0 0.070588235294 0.15523465704 0.16506410256
          0.12283464567 0.11271676301 0.16506410256 0.15523465704 0.070588235294 0
          0 0.081896551724 0.19333333333 0.25443786982 0.33959537572 0.38985313752
          0.25443786982 0.19333333333 0.081896551724 0 0 0.093301435407
          0.24768946396 0.35573770492 0.41987179487 0.46449704142 0.35573770492 0.24768946396
          0.093301435407 0 0 0.10781671159 0.30833333333 0.39556377079
          0.4440433213 0.48666666667 0.39556377079 0.30833333333 0.10781671159 0
          0 0.16197183099 0.35579514825 0.43062200957 0.44470588235 0.49137931034
          0.43062200957 0.35579514825 0.16197183099 0 0 0.16101694915
          0.3538961039 0.42939481268 0.4447592068 0.49090909091 0.42939481268 0.3538961039
          0.16101694915 0 0 0 0 0
          0 0 0 0 0 0
          0 0.027906976744 0 0 0 0
          0 0 0.027906976744 0 0 0.056338028169
          0.072776280323 0.040669856459 0.014117647059 0.012931034483 0.040669856459 0.072776280323
          0.056338028169 0 0 0.06875 0.11483253589 0.10828025478
          0.0375782881 0.034416826004 0.10828025478 0.11483253589 0.06875 0
          0 0.074303405573 0.16235294118 0.16910229645 0.12371134021 0.11257035647
          0.16910229645 0.16235294118 0.074303405573 0 0 0.084269662921
          0.20043103448 0.25812619503 0.33771106942 0.39242685026 0.25812619503 0.20043103448
          0.084269662921 0 0 0.09375 0.25358851675 0.36093418259
          0.41962421712 0.46845124283 0.36093418259 0.25358851675 0.09375 0
          0 0.10563380282 0.3153638814 0.4019138756 0.44470588235 0.49137931034
          0.4019138756 0.3153638814 0.10563380282 0 0 0.16744186047
          0.36971830986 0.440625 0.44582043344 0.49719101124 0.440625 0.36971830986
          0.16744186047 0 0 0.16759776536 0.3686440678 0.43984962406
          0.44609665428 0.49662162162 0.43984962406 0.3686440678 0.16759776536 0
          0 0 0 0 0 0
          0 0 0 0 0 0.027932960894
          0 0 0 0 0 0
          0.027932960894 0 0 0.055084745763 0.071428571429 0.040345821326
          0.014164305949 0.012987012987 0.040345821326 0.071428571429 0.055084745763 0
          0 0.067669172932 0.11239193084 0.1074168798 0.037688442211 0.034562211982
          0.1074168798 0.11239193084 0.067669172932 0 0 0.074349442379
          0.16147308782 0.16834170854 0.12376237624 0.11286681716 0.16834170854 0.16147308782
          0.074349442379 0 0 0.084459459459 0.2 0.25806451613
          0.33860045147 0.39211618257 0.25806451613 0.2 0.084459459459 0
          0 0.093984962406 0.25360230548 0.36061381074 0.41959798995 0.46774193548
          0.36061381074 0.25360230548 0.093984962406 0 0 0.10593220339
          0.31493506494 0.40057636888 0.4447592068 0.49090909091 0.40057636888 0.31493506494
          0.10593220339 0 0 0.16759776536 0.3686440678 0.43984962406
          0.44609665428 0.49662162162 0.43984962406 0.3686440678 0.16759776536 0
          0 0.1677852349 0.36734693878 0.43891402715 0.44642857143 0.49593495935
          0.43891402715 0.36734693878 0.1677852349 0
        </DataArray>
        <DataArray type="Float64" Name="Displacement" NumberOfComponents="3" format="ascii" RangeMin="1.8057290934" RangeMax="1.8237839808">
          -0.0011346837869 1.8094979795 -0.0053855686522 -0.0028880549805 1.8127126079 -0.0053016138559
          -0.0026060008118 1.8129447465 -0.0054242576613 -0.0027405283015 1.8133852355 -0.0061617617191
          -0.0026909516838 1.8134257895 -0.0064355146975 -0.0024628396438 1.8133946558 -0.0066045583526
          -0.0024257545884 1.8130082206 -0.0062049150073 -0.002515955865 1.8123387798 -0.0054675692833
          -0.0021661434724 1.8117123585 -0.0053309957695 -0.0041488422299 1.8082221703 -0.0054401480643
          -0.0030125439287 1.8137552104 -0.0063504520709 -0.0027376988021 1.813342876 -0.0054892606048
          -0.0025004457253 1.8149125528 -0.0075172073748 -0.0021770361757 1.8136079361 -0.0067907905173
          -0.002359450965 1.8131878426 -0.0065658184137 -0.0025709442796 1.8128881264 -0.0064867591801
          -0.0027547569648 1.8130863755 -0.0067451349455 -0.0023887435962 1.8142544563 -0.0075322753479
          -0.0020468540227 1.8124100281 -0.0054180614579 -0.0018457152082 1.8125941455 -0.0064308788006
          -0.0019617139136 1.8142373432 -0.006187853766 -0.0030069929481 1.8145327529 -0.0064630983655
          -0.0018369536922 1.8138351424 -0.0071589798705 -0.0023753205829 1.81318544 -0.0064648936433
          -0.0023534357368 1.813277841 -0.0066130297016 -0.0022933314223 1.8132397054 -0.0067455532116
          -0.0022275214622 1.8127487925 -0.0064442100236 -0.002800100426 1.8131070219 -0.0071645131002
          -0.001575581654 1.8135508345 -0.0064463930196 -0.0026284973867 1.8130148088 -0.0061743544271
          -0.0012555312303 1.8145564688 -0.0076272260801 -0.0025309188255 1.8135273844 -0.0064365302187
          -0.0018062580392 1.8135244556 -0.0068610846626 -0.0020027183894 1.813680169 -0.0070094957165
          -0.0021980136372 1.8131907205 -0.0068937971894 -0.0020755767527 1.8130645348 -0.0068370406422
          -0.0023332014228 1.813253251 -0.0070536504464 -0.0025253730044 1.8128431498 -0.0068708571204
          -0.0018066124903 1.8125393462 -0.0064223899093 -0.0030554406067 1.8132984422 -0.0075960756764
          -0.0005399130475 1.8146251549 -0.0081670007253 -0.0024575043405 1.8145073834 -0.0065476841737
          -0.0020017345726 1.813717442 -0.0072959732162 -0.0017334700392 1.8139938712 -0.0073815090915
          -0.002215556725 1.813298641 -0.0075130666665 -0.0018359620782 1.8126897572 -0.0075365813308
          -0.0023439544138 1.8136516017 -0.0074048316446 -0.0020577994987 1.8130695691 -0.0072896160933
          -0.0015987353268 1.8135383089 -0.0065612806103 -0.0035086998112 1.813389253 -0.0081499553292
          9.5352852441e-05 1.8145128187 -0.0085393464447 -0.0021576458427 1.8142666454 -0.0064344415824
          -0.0017236592889 1.8136931139 -0.0071707008107 -0.0018455267146 1.8134824886 -0.0072765104563
          -0.0040952828271 1.812612643 -0.0091880989226 0.00030937087557 1.8124097332 -0.0092794301767
          -0.001912368304 1.813134536 -0.0072822926095 -0.0020571194347 1.8130531104 -0.0071663788221
          -0.001641425102 1.8133216467 -0.0064464735705 -0.0039202976096 1.8132459775 -0.0085530097894
          0.00020038703952 1.8145414071 -0.0086437797758 -0.0019893024296 1.8137442381 -0.0070867173167
          -0.0017697709802 1.8144555486 -0.0065011083886 -0.0017363816006 1.8140842477 -0.0071007563937
          -0.0018710631868 1.8125547637 -0.008583958061 -0.0015908306696 1.8124463911 -0.008622036054
          -0.00176300218 1.8137110787 -0.0070855026656 -0.0017550079082 1.8137877869 -0.0065146346918
          -0.0015305524556 1.8127729318 -0.0071034608548 -0.0037714294751 1.8133034459 -0.0086767281311
          -9.0688153031e-05 1.8154245335 -0.008109969267 -0.003038197426 1.8141683158 -0.0062835529992
          -0.002935769559 1.813901209 -0.0072689962952 -0.004027902964 1.8132605042 -0.0090806381556
          -0.00010426940997 1.8132327839 -0.0075186532373 -0.0031533983234 1.8130933762 -0.0075000508328
          0.00080129604578 1.8128591667 -0.0090648959935 -0.00027677850796 1.8132142558 -0.0072566172233
          -9.790571082e-05 1.8131957824 -0.0062312462981 -0.0031421317304 1.8142430889 -0.0080670984984
          0.00034426264042 1.8132610221 -0.0079105106027 0.0021532364744 1.8140681807 -0.007941295644
          -0.0023317387209 1.8140842971 -0.0065123830633 -0.0021559555621 1.8145151337 -0.0068479116939
          0.0024481252404 1.8105385962 -0.0063575247384 -0.0054017543138 1.8103493755 -0.0064192334184
          -0.00077168516139 1.8140695063 -0.0069001841475 -0.0006312576401 1.8133824508 -0.0065443490671
          -0.0052098281546 1.8132237154 -0.0079436071552 -0.0032663068257 1.8119916029 -0.007892466471
          0.00045523646836 1.8212574738 -0.0028687846689 0.0016245670702 1.808414602 -0.015096491987
          -0.0013186710811 1.8133733662 -0.0090997620282 -0.00028364675221 1.8118880006 -0.010312033204
          0.0020415040693 1.8058666465 -0.013017365091 -0.0049969661982 1.8056758474 -0.012935346204
          -0.0024349499054 1.8115431216 -0.01026933269 -0.0013754762601 1.8127813739 -0.0089879587999
          -0.0044263663601 1.8074955107 -0.015089155405 -0.0030633458135 1.8198093139 -0.0030048268859
          -0.00276836034 1.8135303821 -0.0060512781403 -0.001986826184 1.8130208244 -0.0052233893548
          -0.0030230738962 1.81509597 -0.0075536240876 -0.0022360855553 1.8138424105 -0.0066308882684
          -0.0023954113855 1.8135396281 -0.00634491901 -0.0026308103505 1.8133272584 -0.006177464286
          -0.0030117955911 1.8133200511 -0.0065835039261 -0.0021265919092 1.8144278078 -0.0075845831892
          -0.0032015283452 1.8120473615 -0.0051976820427 -0.0024273144889 1.8122498792 -0.0060966340435
          -0.0020769212934 1.8138579615 -0.0059216097464 -0.0026091698721 1.8145376041 -0.0068112308988
          -0.0023504565729 1.8141968253 -0.0070128694597 -0.0025133232812 1.813563826 -0.0064709911221
          -0.0024574778679 1.8133601918 -0.0065205630858 -0.0024211025852 1.8134339292 -0.006740658897
          -0.0023852808985 1.8130758795 -0.0064157273749 -0.0025497369637 1.8134670607 -0.0069965751301
          -0.0022709874232 1.8135585397 -0.0067941879366 -0.0027803789426 1.8126588506 -0.0058732339266
          -0.00231432198 1.8148422703 -0.0073178585647 -0.0022006931521 1.8139413583 -0.0064232878451
          -0.0024962325865 1.8137928762 -0.0064415925973 -0.0023177831907 1.8136014315 -0.0067035267574
          -0.002316133657 1.8134398171 -0.0066845077341 -0.0022819714853 1.8133172175 -0.0067070279376
          -0.0022676875321 1.8131714767 -0.0066744376166 -0.0021239794212 1.8130997254 -0.0064571773097
          -0.0024095989646 1.8129775939 -0.0064065982297 -0.0023195780855 1.8136171327 -0.0072831326555
          -0.0019931068737 1.8145225661 -0.0065358576038 -0.0022714489947 1.8142523038 -0.0063647685798
          -0.0021510559048 1.813930002 -0.006809580301 -0.0021089595365 1.8137823305 -0.0071410190661
          -0.0021627053218 1.8134541376 -0.0070373862698 -0.0021722408229 1.8133121501 -0.0070304883044
          -0.0022122075798 1.8133573605 -0.007139816271 -0.002159752617 1.813248994 -0.006802760957
          -0.0020669733042 1.8133097592 -0.0063818812011 -0.0023773639717 1.8133091007 -0.0065134285828
          -0.0018622332937 1.8142467876 -0.0065600010266 -0.0022068445676 1.8144667254 -0.0067940207855
          -0.0017478651235 1.8140023426 -0.006986133969 -0.0019622900975 1.8136068578 -0.0072777087807
          -0.0020047435489 1.8134239469 -0.0073256423671 -0.0021035892381 1.8133262522 -0.007303149883
          -0.0020886461517 1.813199563 -0.007239223043 -0.0023014412692 1.8133268893 -0.0069657889573
          -0.0018770402992 1.8135180838 -0.0067982229404 -0.002240376899 1.8129947079 -0.0065418015684
          -0.0018401344347 1.8146790432 -0.0064138200047 -0.0015632677898 1.8143740613 -0.0068381085969
          -0.0012856068769 1.8140579898 -0.0071738051095 -0.0012939191943 1.8137938837 -0.0071847859394
          -0.0017419937977 1.8134398421 -0.0075303474201 -0.0020791092122 1.8132982948 -0.0075428353558
          -0.0025283987653 1.8134264405 -0.0071647748812 -0.0024947508655 1.8133906762 -0.0071734463636
          -0.002231974615 1.8134168429 -0.0068498319004 -0.0019681051292 1.8134346647 -0.0064128190272
          -0.0017682577456 1.8148100461 -0.0063423817584 -0.0010177539425 1.8142717943 -0.0074186637607
          -0.00068219583995 1.8141280231 -0.0074008640421 -0.0010119293308 1.8137434852 -0.0074312592052
          -0.0015433017651 1.813534938 -0.0076503812581 -0.0019996360169 1.8133755922 -0.0076555743996
          -0.0025165886967 1.8133461427 -0.0074343995517 -0.0028313448644 1.8134663545 -0.0073843488872
          -0.0024860436175 1.8133210697 -0.0074169821222 -0.0017680579143 1.8135802218 -0.0063427775001
          -0.0010647990405 1.8145224113 -0.0076017186512 -0.00086853558207 1.8141124846 -0.0074738115921
          -0.00086467294161 1.813627891 -0.0077581504294 -0.00080438769778 1.8134430797 -0.0076973404056
          -0.00074348796951 1.8135094902 -0.0077151331646 -0.0025155074429 1.8133903712 -0.0076892743802
          -0.002409354612 1.8130647901 -0.0076843347827 -0.0023692482428 1.8129667928 -0.0077466095386
          -0.0023919230433 1.8131751699 -0.0074946681219 -0.0022146462747 1.8133126534 -0.0076170936097
          0.00079163545517 1.818275229 -0.0066410327965 -0.0017174166866 1.8144771082 -0.0071297528224
          -0.00021489202641 1.8143683343 -0.0080907598543 4.5833148914e-05 1.8136655892 -0.0084199765503
          -0.00070056641568 1.8136695913 -0.0081375544983 -0.0022876694608 1.8135414811 -0.0080983015021
          -0.0030027736761 1.813271034 -0.0084065121431 -0.0027596780926 1.8137056061 -0.0080504340362
          -0.0012908179847 1.8135065838 -0.0071334924962 -0.0038289078636 1.8170886514 -0.0066639424651
          0.0019174377602 1.8160694989 -0.010298840555 0.00016436011414 1.8152573938 -0.0077017899976
          -0.0024227149059 1.8137837286 -0.0088602010187 -0.0017986542267 1.8144227961 -0.0089589610942
          -0.0037812290089 1.8163166331 -0.0092260757232 0.0010875590819 1.8162328961 -0.0092611652191
          -0.00095244148068 1.8140752619 -0.0088922416709 -0.00031770248774 1.8131997121 -0.0087672208648
          -0.0030254651272 1.8144326084 -0.0076388798736 -0.0048948163578 1.8151220217 -0.01031985112
          -0.0027834874406 1.8145936864 -0.0058496150584 -0.0027751393935 1.8146231463 -0.0065081587169
          -0.0028396637028 1.814267491 -0.0062585119883 -0.0025788267357 1.8137154645 -0.0061782107207
          -0.0025711288843 1.8132605363 -0.0057518421262 -0.0026150379598 1.8130615461 -0.005761764132
          -0.0025632546734 1.81330766 -0.006180607979 -0.0023487244393 1.8135605248 -0.0062739551595
          -0.0023543429338 1.8136661803 -0.0064972338885 -0.0023098951632 1.8134444303 -0.0057996962454
          -0.0032928221182 1.8155797331 -0.0066532475595 -0.0029745594774 1.814695148 -0.0064294628987
          -0.0025658893313 1.8141052122 -0.0064811626445 -0.0024808431955 1.813726342 -0.0063908953516
          -0.0024477656369 1.8133403932 -0.0063134658223 -0.002470135534 1.813224258 -0.0063158139273
          -0.0024097985236 1.8132895925 -0.0063767977226 -0.0023167892609 1.8134373982 -0.0064843023542
          -0.0019203378105 1.8137385572 -0.0064339130227 -0.0015617308727 1.8144295393 -0.0066111546127
          -0.0020647013394 1.8145636449 -0.0064450767985 -0.0026785520757 1.8146985973 -0.0063915035702
          -0.0023449439862 1.8140020503 -0.0066418489862 -0.0023122192466 1.8138070345 -0.0067444210846
          -0.0022908893183 1.8135882914 -0.006659142662 -0.0023542446172 1.8134653395 -0.0066568867174
          -0.0022757632481 1.8133836473 -0.0067426285889 -0.0022647767001 1.813325671 -0.0066380474373
          -0.001957677089 1.8137349169 -0.0063975674623 -0.0025374206075 1.8133442064 -0.0064304669819
          -0.0020030547851 1.8150217243 -0.0065257673096 -0.0017319852858 1.8144092899 -0.006790260072
          -0.0020012463403 1.8141666929 -0.0068866408104 -0.0021005865152 1.8138029613 -0.0069017924052
          -0.0021684374902 1.8135707616 -0.0069496578774 -0.0021743968576 1.8133985569 -0.0069693542929
          -0.0022249250799 1.8133976601 -0.0069158441341 -0.002326204977 1.8134804903 -0.0068745317673
          -0.0026024813898 1.8134621776 -0.0067886332816 -0.0023478146216 1.8137908004 -0.00651533081
          -0.0018321658862 1.8146120556 -0.0065027914994 -0.0014796230402 1.8144593179 -0.0069941548364
          -0.0016003320426 1.8141844504 -0.007042767933 -0.0017647946121 1.8138725085 -0.0070648466756
          -0.0020579193121 1.8135564708 -0.0071777110658 -0.0020549256404 1.8134346416 -0.0071736738467
          -0.0022790168659 1.8134754007 -0.0070345335926 -0.0024558950474 1.8135191672 -0.0070244918556
          -0.0025748618071 1.8135131399 -0.0069840267133 -0.0022574971238 1.813380924 -0.0065153259938
          -0.0014831908837 1.8148815036 -0.006959379338 -0.00093701068602 1.8144272896 -0.0074966293342
          -0.001144323199 1.814315916 -0.0072635998014 -0.001307549773 1.8139270806 -0.0071838334629
          -0.0014570189419 1.8136024225 -0.0073030910308 -0.0023387526464 1.8134844325 -0.0073051264611
          -0.0024801868644 1.8135474373 -0.0071777556783 -0.0026408949511 1.8136504506 -0.0072565883549
          -0.0028352561976 1.8134821395 -0.0074826869801 -0.0023262297199 1.8136409757 -0.0069781752015
          -0.0012175201037 1.814581783 -0.0072393492286 -0.00076289434479 1.8145427421 -0.0075185151809
          -0.00081413940341 1.8143102733 -0.0074458974688 -0.00082142776532 1.8140324975 -0.0073334692823
          -0.0017789364566 1.8137896765 -0.0078500781565 -0.0017720478345 1.8136478614 -0.0078504790473
          -0.0027307529353 1.8136373494 -0.0073389542608 -0.0027030519174 1.8136286387 -0.0074415336301
          -0.0027547027225 1.8136049261 -0.0075044041888 -0.0023126720987 1.8133487511 -0.0072488400918
          -0.00077935944608 1.8148617418 -0.0077758251392 3.8725967175e-05 1.8151395212 -0.007461702671
          -0.00053570433321 1.814540294 -0.0073924802914 -0.001330245964 1.8143419091 -0.0075302880834
          -0.00010669399724 1.813806326 -0.0073090455155 -0.0031126105912 1.8136932461 -0.0073104091505
          -0.0019370597114 1.8139321208 -0.007528767361 -0.0027237389519 1.8138633641 -0.0073925048681
          -0.0032933378539 1.8142095772 -0.0074428217361 -0.0024456631515 1.8136273535 -0.0077694346474
          -0.0017299132733 1.8136054114 -0.0083469293021 0.00012959748086 1.8147766439 -0.0083434327375
          -0.00029363045228 1.8140259389 -0.0080441161659 -0.0010190312693 1.8139944198 -0.0082744440862
          9.1213539474e-05 1.8135348584 -0.0081449730348 -0.0030329560144 1.8134344154 -0.0081413522454
          -0.0019389120989 1.8136085463 -0.0082494731532 -0.002660245368 1.8133304878 -0.0080284733981
          -0.003111410032 1.8138524889 -0.0083211318486 -0.0011843455556 1.8123431915 -0.00835205844
          3.5529735603e-05 1.8163880657 -0.0080552034514 -0.0004788319716 1.8143751885 -0.009185521093
          0.0011860063142 1.8141799337 -0.009410273542 0.00056905091835 1.8144057156 -0.0084281077042
          0.0042147358178 1.8103573898 -0.0085987194446 -0.0069651800109 1.8101808658 -0.0086033056322
          -0.0032452384901 1.8139994727 -0.0084233302902 -0.0038401107794 1.8134765521 -0.0094585115822
          -0.0021161178816 1.813367054 -0.0091776715214 -0.0025540394922 1.8148948322 -0.0080614038046
          -0.0033641234482 1.8154272135 -0.0062671615888 -0.0025175725036 1.8145986125 -0.0063054604312
          -0.0030433067955 1.8146393027 -0.0064546130948 -0.002838201197 1.8141800288 -0.0063445562727
          -0.0025980572162 1.813619468 -0.0060194812994 -0.0025780400092 1.8134632669 -0.0060425675914
          -0.0023393010891 1.8137432861 -0.0063517557518 -0.0021285537266 1.8139222047 -0.0064383154062
          -0.0026293029486 1.8136134829 -0.0063086237242 -0.0017020663485 1.8143197984 -0.0062446729825
          -0.0025293274226 1.8149542441 -0.0067436005664 -0.0026014010757 1.814664382 -0.0064571492034
          -0.0023571976628 1.8141167482 -0.0064219443953 -0.0024293352327 1.8138700059 -0.0064220948427
          -0.0024473644235 1.8138357838 -0.0064815286261 -0.0024555251471 1.8136679554 -0.0064565790734
          -0.0024561508054 1.8134338413 -0.0064309719165 -0.0025279488944 1.8134226086 -0.006426940533
          -0.0023067258929 1.813675839 -0.0064486050556 -0.0023521124024 1.8137937398 -0.0067080455027
          -0.0015757382846 1.8144254878 -0.0067763577613 -0.0020714147882 1.8145188158 -0.0065127459497
          -0.002182622698 1.8142265491 -0.0066240398412 -0.0022510808775 1.8139725269 -0.006646495851
          -0.0023136250828 1.8138184949 -0.0066664570138 -0.0022807867842 1.8136773091 -0.0066688273116
          -0.0023570472991 1.8135581834 -0.0066549553815 -0.0024299807497 1.8135405516 -0.0066187577319
          -0.002531083188 1.813573764 -0.0065207373629 -0.0030476346324 1.8131977226 -0.0067731494325
          -0.0017940068127 1.8150060949 -0.0065907845017 -0.0017251968754 1.8146308036 -0.0068024764615
          -0.0019678292171 1.814374665 -0.006739137174 -0.0021421469096 1.8140419584 -0.0068664412243
          -0.0021492074203 1.8137355432 -0.0068608395527 -0.0021502295766 1.8135712857 -0.0068780147799
          -0.00220349256 1.8136372922 -0.0068500369753 -0.0023710570654 1.8136954163 -0.0067238492288
          -0.0026214949538 1.8136801933 -0.0067986988006 -0.0025783068352 1.8137675886 -0.0065999557833
          -0.0013823861306 1.8152054763 -0.0070083286314 -0.0015333371858 1.8147114743 -0.007004270665
          -0.0016757747356 1.8144127565 -0.0069135532193 -0.001863434742 1.8140509394 -0.0070521281018