<?xml version="1.0"?>
<VTKFile type="UnstructuredGrid" version="0.1" byte_order="LittleEndian" compressor="vtkZLibDataCompressor">
  <UnstructuredGrid>
    <FieldData>
      <DataArray type="Float64" Name="TIME" NumberOfTuples="1" format="ascii" RangeMin="0.23903091018" RangeMax="0.23903091018">
        0.23903091018
      </DataArray>
    </FieldData>
    <Piece NumberOfPoints="1000" NumberOfCells="0">
      <PointData>
        <DataArray type="Float64" Name="Damage" format="ascii" RangeMin="0" RangeMax="0.49719101124">
          0 0 0 0 0 0
          0 0 0 0 0 0.027932960894
          0 0 0 0 0 0
          0.027932960894 0 0 0.055084745763 0.071428571429 0.040345821326
          0.014164305949 0.012987012987 0.040345821326 0.071428571429 0.055084745763 0
          0 0.067669172932 0.11239193084 0.1074168798 0.037688442211 0.034562211982
          0.1074168798 0.11239193084 0.067669172932 0 0 0.074349442379
          0.16147308782 0.16834170854 0.12376237624 0.11286681716 0.16834170854 0.16147308782
          0.074349442379 0 0 0.084459459459 0.2 0.25806451613
          0.33860045147 0.39211618257 0.25806451613 0.2 0.084459459459 0
          0 0.093984962406 0.25360230548 0.36061381074 0.41959798995 0.46774193548
          0.36061381074 0.25360230548 0.093984962406 0 0 0.10593220339
          0.31493506494 0.40057636888 0.4447592068 0.49090909091 0.40057636888 0.31493506494
          0.10593220339 0 0 0.16759776536 0.3686440678 0.43984962406
          0.44609665428 0.49662162162 0.43984962406 0.3686440678 0.16759776536 0
          0 0.1677852349 0.36734693878 0.43891402715 0.44642857143 0.49593495935
          0.43891402715 0.36734693878 0.1677852349 0 0 0
          0 0 0 0 0 0
          0 0 0 0.027906976744 0 0
          0 0 0 0 0.027906976744 0
          0 0.056338028169 0.072776280323 0.040669856459 0.014117647059 0.012931034483
          0.040669856459 0.072776280323 0.056338028169 0 0 0.06875
          0.11483253589 0.10828025478 0.0375782881 0.034416826004 0.10828025478 0.11483253589
          0.06875 0 0 0.074303405573 0.16235294118 0.16910229645
          0.12371134021 0.11257035647 0.16910229645 0.16235294118 0.074303405573 0
          0 0.084269662921 0.20043103448 0.25812619503 0.33771106942 0.39242685026
          0.25812619503 0.20043103448 0.084269662921 0 0 0.09375
          0.25358851675 0.36093418259 0.41962421712 0.46845124283 0.36093418259 0.25358851675
          0.09375 0 0 0.10563380282 0.3153638814 0.4019138756
          0.44470588235 0.49137931034 0.4019138756 0.3153638814 0.10563380282 0
          0 0.16744186047 0.36971830986 0.440625 0.44582043344 0.49719101124
          0.440625 0.36971830986 0.16744186047 0 0 0.16759776536
          0.3686440678 0.43984962406 0.44609665428 0.49662162162 0.43984962406 0.3686440678
          0.16759776536 0 0 0 0 0
          0 0 0 0 0 0
          0 0.024647887324 0 0 0 0
          0 0 0.024647887324 0 0 0.051212938005
          0.06875 0.038817005545 0.012635379061 0.011666666667 0.038817005545 0.06875
          0.051212938005 0 0 0.064593301435 0.10905730129 0.10491803279
          0.036858974359 0.034023668639 0.10491803279 0.10905730129 0.064593301435 0
          0 0.070588235294 0.15523465704 0.16506410256 0.12283464567 0.11271676301
          0.16506410256 0.15523465704 0.070588235294 0 0 0.081896551724
          0.19333333333 0.25443786982 0.33959537572 0.38985313752 0.25443786982 0.19333333333
          0.081896551724 0 0 0.093301435407 0.24768946396 0.35573770492
          0.41987179487 0.46449704142 0.35573770492 0.24768946396 0.093301435407 0
          0 0.10781671159 0.30833333333 0.39556377079 0.4440433213 0.48666666667
          0.39556377079 0.30833333333 0.10781671159 0 0 0.16197183099
          0.35579514825 0.43062200957 0.44470588235 0.49137931034 0.43062200957 0.35579514825
          0.16197183099 0 0 0.16101694915 0.3538961039 0.42939481268
          0.4447592068 0.49090909091 0.42939481268 0.3538961039 0.16101694915 0
          0 0 0 0 0 0
          0 0 0 0 0 0.025
          0 0 0 0 0 0
          0.025 0 0 0.05023923445 0.068391866913 0.039344262295
          0.012820512821 0.011834319527 0.039344262295 0.068391866913 0.05023923445 0
          0 0.063694267516 0.10819672131 0.10465116279 0.036984352774 0.034120734908
          0.10465116279 0.10819672131 0.063694267516 0 0 0.070981210856
          0.15544871795 0.16500711238 0.12290502793 0.11282051282 0.16500711238 0.15544871795
          0.070981210856 0 0 0.082217973231 0.19378698225 0.25459317585
          0.33974358974 0.38981042654 0.25459317585 0.19378698225 0.082217973231 0
          0 0.093418259023 0.24918032787 0.35610465116 0.41963015647 0.46456692913
          0.35610465116 0.24918032787 0.093418259023 0 0 0.10765550239
          0.30868761553 0.39508196721 0.44391025641 0.48668639053 0.39508196721 0.30868761553
          0.10765550239 0 0 0.1625 0.35645933014 0.43099787686
          0.44467640919 0.4913957935 0.43099787686 0.35645933014 0.1625 0
          0 0.16165413534 0.35446685879 0.42966751918 0.44472361809 0.49078341014
          0.42966751918 0.35446685879 0.16165413534 0 0 0
          0 0 0 0 0 0
          0 0 0 0.02786377709 0 0
          0 0 0 0 0.02786377709 0
          0 0.054117647059 0.070397111913 0.040064102564 0.014173228346 0.013005780347
          0.040064102564 0.070397111913 0.054117647059 0 0 0.066805845511
          0.11057692308 0.106685633 0.037709497207 0.034615384615 0.106685633 0.11057692308
          0.066805845511 0 0 0.074226804124 0.16062992126 0.16759776536
          0.12362637363 0.11292346299 0.16759776536 0.16062992126 0.074226804124 0
          0 0.084427767355 0.19942196532 0.25769230769 0.33877038896 0.39145496536
          0.25769230769 0.19942196532 0.084427767355 0 0 0.093945720251
          0.25320512821 0.35988620199 0.41899441341 0.46666666667 0.35988620199 0.25320512821
          0.093945720251 0 0 0.10588235294 0.31407942238 0.39903846154
          0.44409448819 0.48988439306 0.39903846154 0.31407942238 0.10588235294 0
          0 0.16718266254 0.36705882353 0.43841336117 0.44536082474 0.49530956848
          0.43841336117 0.36705882353 0.16718266254 0 0 0.16728624535
          0.36543909348 0.43718592965 0.44554455446 0.49435665914 0.43718592965 0.36543909348
          0.16728624535 0 0 0 0 0
          0 0 0 0 0 0
          0 0.025280898876 0 0 0 0
          0 0 0.025280898876 0 0 0.049568965517
          0.066666666667 0.038461538462 0.013005780347 0.012016021362 0.038461538462 0.066666666667
          0.049568965517 0 0 0.06309751434 0.1050295858 0.10367454068
          0.037179487179 0.034360189573 0.10367454068 0.1050295858 0.06309751434 0
          0 0.071294559099 0.15462427746 0.1641025641 0.12296110414 0.11316397229
          0.1641025641 0.15462427746 0.071294559099 0 0 0.082616179002
          0.19359145527 0.25473933649 0.34064665127 0.38930481283 0.25473933649 0.19359145527
          0.082616179002 0 0 0.093690248566 0.24852071006 0.35564304462
          0.41923076923 0.46327014218 0.35564304462 0.24852071006 0.093690248566 0
          0 0.10775862069 0.30833333333 0.39349112426 0.4436416185 0.48598130841
          0.39349112426 0.30833333333 0.10775862069 0 0 0.16292134831
          0.35560344828 0.43021032505 0.44465290807 0.49053356282 0.43021032505 0.35560344828
          0.16292134831 0 0 0.16216216216 0.35324675325 0.42857142857
          0.44469525959 0.48962655602 0.42857142857 0.35324675325 0.16216216216 0
          0 0 0 0 0 0
          0 0 0 0 0 0.025
          0 0 0 0 0 0
          0.025 0 0 0.05023923445 0.068391866913 0.039344262295
          0.012820512821 0.011834319527 0.039344262295 0.068391866913 0.05023923445 0
          0 0.063694267516 0.10819672131 0.10465116279 0.036984352774 0.034120734908
          0.10465116279 0.10819672131 0.063694267516 0 0 0.070981210856
          0.15544871795 0.16500711238 0.12290502793 0.11282051282 0.16500711238 0.15544871795
          0.070981210856 0 0 0.082217973231 0.19378698225 0.25459317585
          0.33974358974 0.38981042654 0.25459317585 0.19378698225 0.082217973231 0
          0 0.093418259023 0.24918032787 0.35610465116 0.41963015647 0.46456692913
          0.35610465116 0.24918032787 0.093418259023 0 0 0.10765550239
          0.30868761553 0.39508196721 0.44391025641 0.48668639053 0.39508196721 0.30868761553
          0.10765550239 0 0 0.1625 0.35645933014 0.43099787686
          0.44467640919 0.4913957935 0.43099787686 0.35645933014 0.1625 0
          0 0.16165413534 0.35446685879 0.42966751918 0.44472361809 0.49078341014
          0.42966751918 0.35446685879 0.16165413534 0 0 0
          0 0 0 0 0 0
          0 0 0 0.024647887324 0 0
          0 0 0 0 0.024647887324 0
          0 0.051212938005 0.06875 0.038817005545 0.012635379061 0.011666666667
          0.038817005545 0.06875 0.051212938005 0 0 0.064593301435
          0.10905730129 0.10491803279 0.036858974359 0.034023668639 0.10491803279 0.10905730129
          0.064593301435 0 0 0.070588235294 0.15523465704 0.16506410256
          0.12283464567 0.11271676301 0.16506410256 0.15523465704 0.070588235294 0
          0 0.081896551724 0.19333333333 0.25443786982 0.33959537572 0.38985313752
          0.25443786982 0.19333333333 0.081896551724 0 0 0.093301435407
          0.24768946396 0.35573770492 0.41987179487 0.46449704142 0.35573770492 0.24768946396
          0.093301435407 0 0 0.10781671159 0.30833333333 0.39556377079
          0.4440433213 0.48666666667 0.39556377079 0.30833333333 0.10781671159 0
          0 0.16197183099 0.35579514825 0.43062200957 0.44470588235 0.49137931034
          0.43062200957 0.35579514825 0.16197183099 0 0 0.16101694915
          0.3538961039 0.42939481268 0.4447592068 0.49090909091 0.42939481268 0.3538961039
          0.16101694915 0 0 0 0 0
          0 0 0 0 0 0
          0 0.027906976744 0 0 0 0
          0 0 0.027906976744 0 0 0.056338028169
          0.072776280323 0.040669856459 0.014117647059 0.012931034483 0.040669856459 0.072776280323
          0.056338028169 0 0 0.06875 0.11483253589 0.10828025478
          0.0375782881 0.034416826004 0.10828025478 0.11483253589 0.06875 0
          0 0.074303405573 0.16235294118 0.16910229645 0.12371134021 0.11257035647
          0.16910229645 0.16235294118 0.074303405573 0 0 0.084269662921
          0.20043103448 0.25812619503 0.33771106942 0.39242685026 0.25812619503 0.20043103448
          0.084269662921 0 0 0.09375 0.25358851675 0.36093418259
          0.41962421712 0.46845124283 0.36093418259 0.25358851675 0.09375 0
          0 0.10563380282 0.3153638814 0.4019138756 0.44470588235 0.49137931034
          0.4019138756 0.3153638814 0.10563380282 0 0 0.16744186047
          0.36971830986 0.440625 0.44582043344 0.49719101124 0.440625 0.36971830986
          0.16744186047 0 0 0.16759776536 0.3686440678 0.43984962406
          0.44609665428 0.49662162162 0.43984962406 0.3686440678 0.16759776536 0
          0 0 0 0 0 0
          0 0 0 0 0 0.027932960894
          0 0 0 0 0 0
          0.027932960894 0 0 0.055084745763 0.071428571429 0.040345821326
          0.014164305949 0.012987012987 0.040345821326 0.071428571429 0.055084745763 0
          0 0.067669172932 0.11239193084 0.1074168798 0.037688442211 0.034562211982
          0.1074168798 0.11239193084 0.067669172932 0 0 0.074349442379
          0.16147308782 0.16834170854 0.12376237624 0.11286681716 0.16834170854 0.16147308782
          0.074349442379 0 0 0.084459459459 0.2 0.25806451613
          0.33860045147 0.39211618257 0.25806451613 0.2 0.084459459459 0
          0 0.093984962406 0.25360230548 0.36061381074 0.41959798995 0.46774193548
          0.36061381074 0.25360230548 0.093984962406 0 0 0.10593220339
          0.31493506494 0.40057636888 0.4447592068 0.49090909091 0.40057636888 0.31493506494
          0.10593220339 0 0 0.16759776536 0.3686440678 0.43984962406
          0.44609665428 0.49662162162 0.43984962406 0.3686440678 0.16759776536 0
          0 0.1677852349 0.36734693878 0.43891402715 0.44642857143 0.49593495935
          0.43891402715 0.36734693878 0.1677852349 0
        </DataArray>
        <DataArray type="Float64" Name="Displacement" NumberOfComponents="3" format="ascii" RangeMin="1.6869548885" RangeMax="1.7035737422">
          -0.0049805942378 1.6965417964 -0.010534129465 -0.0040092172801 1.6956531483 -0.012314866403
          -0.0035960262084 1.6935972676 -0.0096943163229 -0.0037647408955 1.6949270708 -0.011011903765
          -0.0039195545905 1.6951563388 -0.011329133487 -0.0040881129642 1.6950816452 -0.011457344903
          -0.0041393277821 1.6943610425 -0.011046394574 -0.0042820327244 1.6926377654 -0.0097423531302
          -0.0037958776606 1.6941588295 -0.012332465642 -0.0028098340511 1.6947111162 -0.010539958829
          -0.0034584726923 1.6940998345 -0.011082856651 -0.0021118678729 1.6920762619 -0.0092923851522
          -0.003775837655 1.6938456812 -0.010075088183 -0.0036812967649 1.6933119127 -0.0098469493607
          -0.0036613316104 1.692860313 -0.0097155513892 -0.0038300510996 1.6926437758 -0.0097517555612
          -0.0037467849532 1.6925620748 -0.0097266935514 -0.0037688601873 1.6929173177 -0.010194938756
          -0.0054034280763 1.6907014305 -0.0093376602282 -0.003934625011 1.6922901891 -0.011081542933
          -0.0039972931335 1.6935466413 -0.0094938248844 -0.0037614369774 1.6936116791 -0.010033919131
          -0.0031620063797 1.6937073963 -0.010536650275 -0.003785698496 1.6937932913 -0.010438878791
          -0.0036554666015 1.6929192171 -0.010160692919 -0.0034587944616 1.6926070915 -0.0098664222925
          -0.0033017404429 1.6932525203 -0.010524996641 -0.0039041942965 1.6927058949 -0.010543634149
          -0.0032579643257 1.6921029198 -0.0099854189835 -0.003118777204 1.6916619631 -0.009465641854
          -0.0035247532633 1.6932745872 -0.010124257098 -0.0040563494643 1.6938242543 -0.010766370856
          -0.0030364954945 1.6930991174 -0.010412820521 -0.0030815890878 1.693420123 -0.010818594626
          -0.003347965547 1.6926766045 -0.010367177361 -0.0032410516608 1.6924879176 -0.010311690741
          -0.0035956075331 1.6927996056 -0.010824703471 -0.0036583457228 1.6921013228 -0.010440295083
          -0.0025831083787 1.6923656342 -0.010745455639 -0.0031327642527 1.6913528202 -0.010073790622
          -0.0037028544377 1.6934030458 -0.010441515582 -0.0039238236021 1.694089089 -0.010490783687
          -0.0035599730213 1.6931165792 -0.011053745972 -0.0033582635292 1.6931906661 -0.011037492278
          -0.0031377564991 1.6934878682 -0.011153475643 -0.0031723739001 1.6926217773 -0.011095940514
          -0.0029660303211 1.6926773401 -0.011019879148 -0.002718357078 1.6921162212 -0.01106112159
          -0.0023114971773 1.6926088061 -0.010479911913 -0.0025497640921 1.691472636 -0.010399371786
          -0.0038457562781 1.6930661118 -0.010662649544 -0.0038847884303 1.6939474954 -0.010427943213
          -0.0035291279975 1.692740997 -0.011611249194 -0.0031833267443 1.6929188156 -0.011950210726
          -0.0031648860957 1.6925852215 -0.011758870084 -0.0026697339487 1.6922815867 -0.011898977333
          -0.0026632550507 1.6922183931 -0.011896359627 -0.0023180962891 1.6917352101 -0.011568658859
          -0.0019465424681 1.6924910367 -0.010407828407 -0.0020254355966 1.6911353589 -0.010652306864
          -0.0037763338525 1.6940998104 -0.010590596462 -0.002997713769 1.6937549629 -0.011374877573
          -0.0028752644131 1.6928218703 -0.011998104748 -0.0035135089406 1.6935106575 -0.011408774559
          -0.004881909052 1.6939639703 -0.012801662131 -0.00059453829339 1.6937831727 -0.012789781977
          -0.0019201347477 1.6929346978 -0.011411604343 -0.0025493811405 1.6917875188 -0.012036612615
          -0.002394716273 1.6923189128 -0.011328818387 -0.0016709072225 1.6921785263 -0.010611807322
          -0.0035522107247 1.6950320641 -0.009904389648 -2.6517225006e-05 1.6934463796 -0.013801952813
          -0.0044792105317 1.6934219972 -0.011908735957 -0.0082058698336 1.6924223354 -0.014551127992
          -0.0063069113325 1.6930201048 -0.014753439423 0.0012893296051 1.6928061744 -0.014750065331
          0.0032199956626 1.6917709955 -0.01457717365 -0.0005424570082 1.6923644928 -0.011925017559
          -0.0050267755165 1.6919876128 -0.013840965768 -0.0013546693547 1.693152892 -0.0097853502475
          -0.0011331639168 1.6928757358 -0.012598012156 -0.0055735863086 1.6967573285 -0.0075252823718
          -0.0016979046189 1.6956735568 -0.010015849038 -0.0010933703814 1.6941117419 -0.011018291313
          -0.0020994519366 1.6940750512 -0.012230748076 -0.0024146633383 1.6939285782 -0.012213645962
          -0.0036198906707 1.6935168203 -0.010970989535 -0.0028610074293 1.6946819442 -0.010007359986
          0.0011457610649 1.6952846211 -0.0074726112693 -0.0035780887035 1.6909571343 -0.012730473965
          -0.0015149693414 1.6890767507 -0.018311410372 -0.0020193297885 1.7004893578 -0.00644762926
          -0.0046627044632 1.6921886906 -0.013803072351 -0.0021315193577 1.69364027 -0.012688865325
          -1.1342722745e-05 1.6956786753 -0.01011859337 -0.0042147439374 1.6955529142 -0.010059914715
          -0.0020040683208 1.6929823316 -0.01276230262 0.00050194739219 1.6910995154 -0.013830132598
          -0.0021719964276 1.6990414289 -0.0064246483913 -0.0028698923448 1.6868479292 -0.018778265761
          -0.0049395895306 1.6948241795 -0.010589769756 -0.0046041503505 1.6943000453 -0.008914909226
          -0.0040312767257 1.6940973151 -0.0098993505412 -0.0042942621743 1.6936324949 -0.0093123287027
          -0.0038316310144 1.693110631 -0.0092366018518 -0.0039687581004 1.6928793891 -0.009237028061
          -0.0036156214781 1.6928808286 -0.009196803642 -0.0038645904235 1.6931180488 -0.010024458938
          -0.00331720312 1.6928300032 -0.0088861592456 -0.0029098363432 1.6930238517 -0.010606632097
          -0.0038078830677 1.6927740103 -0.0080590288955 -0.0037023994879 1.6933706747 -0.009455163164
          -0.0035343584235 1.6940300701 -0.010389567387 -0.0039070037724 1.6935310859 -0.0097281530666
          -0.0038425452951 1.6934387429 -0.0098745362762 -0.0036483497385 1.6933542434 -0.0099816270733
          -0.0036291770131 1.6929066121 -0.0097435504855 -0.0039641395409 1.6929806428 -0.010352681513
          -0.0038187413288 1.6918861938 -0.0094595580787 -0.0037957890135 1.6909039112 -0.0081200840333
          -0.0034761683471 1.6939912723 -0.011250248697 -0.0032606038988 1.6936419617 -0.010206338965
          -0.0038592679346 1.6935114626 -0.0096679858372 -0.0037336252671 1.6935020829 -0.0098958042318
          -0.0036350740107 1.6932558063 -0.010005021112 -0.0034732490846 1.6930952466 -0.010005644299
          -0.0033407479771 1.6928939717 -0.0098909629675 -0.0032519161637 1.69247142 -0.0096774213102
          -0.0038475103396 1.6921859053 -0.010194133319 -0.003633222974 1.6920961619 -0.011168796097
          -0.0032412459158 1.6944068071 -0.010465642328 -0.0030797204878 1.6936037224 -0.010496868927
          -0.0036925006521 1.693794952 -0.010243911342 -0.003371259199 1.6937014769 -0.010716083133
          -0.0033881009067 1.6934338909 -0.010785761528 -0.0033645112626 1.6932160837 -0.010750737533
          -0.0033174668313 1.6930932302 -0.010729281586 -0.0029674073659 1.6927705005 -0.010230453068
          -0.0036445615117 1.6921572374 -0.010508199005 -0.0034099000918 1.6925826187 -0.010446371026
          -0.0033410763997 1.6939050725 -0.01065833141 -0.0030512766261 1.6939146693 -0.011029044213
          -0.0033806984778 1.6937005606 -0.010852567119 -0.0031706556971 1.6935441871 -0.011089553159
          -0.0031874557203 1.6933653065 -0.01089800316 -0.003063982806 1.6931385786 -0.010853002078
          -0.0030802943055 1.6929013665 -0.011095024458 -0.0028565651191 1.6926688899 -0.010829977424
          -0.0032638722596 1.6924917247 -0.011041639792 -0.0029514527313 1.6920299563 -0.010612543119
          -0.0030815229209 1.694220654 -0.010946188322 -0.0025646332343 1.6940901746 -0.011296659205
          -0.0029082289627 1.6938369722 -0.010995143959 -0.0029762756861 1.6935769907 -0.011137452606
          -0.0034176463249 1.6933942642 -0.011418031682 -0.0024888787542 1.69315589 -0.011422267247
          -0.0029417657846 1.6929730062 -0.011111318557 -0.0029420252773 1.6928104102 -0.010978222181
          -0.003314966781 1.6926664428 -0.011301513042 -0.0027795324548 1.6923427856 -0.01092081618
          -0.0029104596989 1.6944411322 -0.010908638589 -0.0023054382411 1.693892637 -0.011965103411
          -0.0028507163554 1.6936474714 -0.011920154687 -0.0033557621873 1.6933072653 -0.01232936455
          -0.0025796027383 1.6930560612 -0.011887692136 -0.0029354084433 1.6927930134 -0.011934283112
          -0.0021289840813 1.6926809555 -0.012338783307 -0.0026362582171 1.6926220436 -0.011930456551
          -0.0031194764564 1.6924425159 -0.011954832192 -0.002542139514 1.6925884978 -0.010879612878
          -0.0016373795943 1.6939408292 -0.013005547661 -0.002172226955 1.6941776343 -0.011788544472
          -0.0025532563401 1.6936453597 -0.012210599618 -0.0021220498272 1.6931430727 -0.012329357303
          -0.0026324969011 1.6928008993 -0.012398298485 -0.0023716174687 1.6926228624 -0.012376754931
          -0.002859835282 1.6925411962 -0.012325512468 -0.0024725995494 1.6926142791 -0.01221480692
          -0.0028603840503 1.692719668 -0.01177953691 -0.0034036793468 1.6920507407 -0.013021571091
          -0.0018323809511 1.6944620717 -0.01130504935 -0.0019786226543 1.6928274118 -0.012802953239
          -0.0021086543693 1.6930735208 -0.012047448278 -0.0016613277994 1.6924687553 -0.01263931301
          -0.0019372452445 1.6930378931 -0.012470299745 -0.0027774928606 1.6927781233 -0.01242242772
          -0.0029790320769 1.69185441 -0.012650900037 -0.0025173443421 1.6920454009 -0.01206306726
          -0.0026278117776 1.6913818771 -0.01280961301 -0.0027832171502 1.6926611048 -0.011242178098
          -0.0058408393311 1.6907033604 -0.012332247007 0.0023585452942 1.696895666 -0.012314583551
          0.00046189623599 1.6935800787 -0.013413769622 0.00076325527005 1.6932467396 -0.012986627892
          -0.0057640688179 1.695597331 -0.01466147277 0.0016578861374 1.6955114176 -0.014619791049
          -0.0050243218215 1.6926557974 -0.012988319291 -0.0046382088076 1.6925464354 -0.0134990893
          -0.0065703883428 1.6954595295 -0.012341599101 0.0018102452424 1.6885862651 -0.012380517531
          -0.0026115498554 1.6932974039 -0.009260574922 -0.003838064468 1.6941496733 -0.0096415789834
          -0.0038998351702 1.6940978428 -0.0098704324615 -0.0039698814637 1.6940523441 -0.0097244380616
          -0.003979204051 1.6944301193 -0.010492754046 -0.0039925157378 1.694397423 -0.010558853918
          -0.0039744452956 1.6934819747 -0.009761750116 -0.0040447304658 1.6930491717 -0.0098364170905
          -0.0039949877192 1.6927140275 -0.0096367000853 -0.0053582662889 1.691429991 -0.0091831941404
          -0.0045213301699 1.6948101465 -0.0099287962297 -0.0038912734297 1.6945254935 -0.0099507005549
          -0.0038653803634 1.6941675079 -0.0098227651677 -0.0037687974187 1.6937891312 -0.0097934653894
          -0.0037810622224 1.6937617478 -0.0099300840039 -0.0037673898647 1.6935463894 -0.0099510741024
          -0.0037253407405 1.6931759954 -0.0097674186186 -0.0036439648594 1.6931732224 -0.009841788596
          -0.0036297257902 1.6930797528 -0.0099222558043 -0.00294452381 1.6930589759 -0.0098862334674
          -0.003529802833 1.6942394594 -0.01034725203 -0.0043607786554 1.6946397884 -0.0097677134014
          -0.003674913143 1.6940806989 -0.010076332849 -0.0035856721956 1.6939270417 -0.010267693634
          -0.0036159104144 1.6937293817 -0.010313956234 -0.0034482207327 1.6935059923 -0.010332626973
          -0.0035202859145 1.6933088232 -0.010250738354 -0.0034447893193 1.693051876 -0.010053795888
          -0.0027801514372 1.693185562 -0.0097644609939 -0.00357790754 1.6924019529 -0.010345616969
          -0.003129401725 1.6943179628 -0.010685085838 -0.0034713877457 1.6944467736 -0.010489750151
          -0.0033744948345 1.6941151927 -0.0105091285 -0.003393818326 1.6939199073 -0.010580216666
          -0.0033680421108 1.6937948436 -0.010604461341 -0.0033120491078 1.6935964466 -0.01054919731
          -0.0033193158811 1.6933032729 -0.010598354123 -0.0033277897158 1.6930870803 -0.010488751833
          -0.0032191764346 1.6930016384 -0.010454244572 -0.0035535036869 1.6924574553 -0.010648352773
          -0.0030110267729 1.6943768405 -0.010941167394 -0.0031895824846 1.6943989677 -0.010805990472
          -0.0031858403153 1.6940600579 -0.010796522134 -0.0031471148866 1.6939168886 -0.010974807488
          -0.0031625663948 1.6936577576 -0.010959208047 -0.0030873963482 1.6935186153 -0.010915224579
          -0.0031359413256 1.693288718 -0.010934029973 -0.0030713439189 1.6930330996 -0.010767306876
          -0.0030786540732 1.6929583071 -0.010785261925 -0.0032450055626 1.6925072102 -0.010895059798
          -0.002822857525 1.6949934314 -0.010983323086 -0.002727200982 1.6943537304 -0.011261839553
          -0.0028335138455 1.6941091297 -0.011188371362 -0.002802557799 1.6940532816 -0.011252930316
          -0.0028220379141 1.6936989886 -0.011298662335 -0.0030292145384 1.6934858618 -0.011315797495
          -0.0030547104899 1.6934431061 -0.011245574291 -0.0030283438245 1.693078634 -0.011175164863
          -0.0031060240948 1.6929128285 -0.011231856097 -0.0030169579363 1.6931359298 -0.010948768371
          -0.0020082388516 1.6949399415 -0.012059384818 -0.0024751561764 1.6943209991 -0.011605777324
          -0.0028827351143 1.6941049202 -0.01144560959 -0.0025396084766 1.6938547218 -0.011597085516
          -0.0028358829292 1.6938371323 -0.011693665343 -0.0026481581103 1.6936008856 -0.011707900183
          -0.0029630983507 1.693235335 -0.011589255033 -0.0025598117453 1.6930539179 -0.011425909416
          -0.0029889927536 1.6928848993 -0.011581857611 -0.0034284086444 1.6930896042 -0.012029391481
          -0.0020747388908 1.6951109123 -0.011424014362 -0.0025525716923 1.69401681 -0.012079988323
          -0.0021193949045 1.694411019 -0.011616480037 -0.0025342330137 1.6939325588 -0.012031678354
          -0.0022064735923 1.6938102678 -0.011718773114 -0.0028220557107 1.6935741542 -0.011756232433
          -0.002514519099 1.6932983364 -0.012036293143 -0.0029589760762 1.693375796 -0.011617347806
          -0.0025073503028 1.6925595766 -0.012080613398 -0.0029115189558 1.6932271287 -0.011374786354
          -0.0021398507553 1.6943058328 -0.012808435492 -0.0021243412757 1.6945888498 -0.011761610784
          -0.0025876240122 1.6941069371 -0.01185604728 -0.0022184260872 1.6933892999 -0.012405580765
          -0.0012223316419 1.6918770823 -0.01356565026 -0.0033923038385 1.6917003552 -0.013522948926
          -0.0023557683703 1.692801699 -0.012397237068 -0.0020068183419 1.6930796726 -0.011843120692
          -0.0024960849482 1.6930999797 -0.011778150577 -0.0024314137587 1.6924088666 -0.012789457803
          0.0025442157911 1.698132416 -0.011659203607 0.00099860606913 1.6941850603 -0.012949611226
          0.00097900876317 1.69378139 -0.011688869777 0.002642402685 1.6919184828 -0.011551447114
          0.00023351973158 1.6925883685 -0.011605856604 -0.0044895197072 1.6923583929 -0.011581526429
          -0.006889361373 1.6912710982 -0.011606620684 -0.0052124277394 1.6926792919 -0.011747126638
          -0.0053002660669 1.6928066725 -0.012938832306 -0.006549769675 1.696115634 -0.011727874236
          -0.0034385660101 1.6943511897 -0.0093297441228 -0.0042475571384 1.6948530149 -0.0098652241714
          -0.0036556614339 1.6940658114 -0.0094634602457 -0.0038140665774 1.694001163 -0.0095645594888
          -0.0039138736166 1.6940025937 -0.0097576516655 -0.0040408032409 1.6938265619 -0.0097652475216
          -0.0041683074067 1.693351182 -0.0095576462958 -0.0042907708009 1.6930413807 -0.0094590180229
          -0.0036179895901 1.6933949297 -0.009860250906 -0.0044555294668 1.6925832249 -0.0093062424195
          -0.003900483069 1.6947757072 -0.010055182322 -0.0034393252445 1.6943180216 -0.010042879838
          -0.0037268803096 1.6944249581 -0.0099135199265 -0.0036790730239 1.6940728279 -0.009888507537
          -0.0037557403661 1.6940402266 -0.0099297579139 -0.0037980510801 1.6938812578 -0.0099190544518
          -0.0038323751721 1.6934288094 -0.009879688794 -0.003787889649 1.6933824643 -0.0098917694858
          -0.0041304201264 1.6928543271 -0.010037651903 -0.003590422778 1.6929535563 -0.0099992652808
          -0.0040974136793 1.6954530007 -0.010165993829 -0.0035259156628 1.6945480207 -0.010115249094
          -0.0034892732467 1.6944900421 -0.010202611176 -0.0035986727673 1.6941926763 -0.010283171962
          -0.0035780249566 1.6939852796 -0.010321805224 -0.0035452704134 1.6937627067 -0.010331535525
          -0.0035268598275 1.6936140208 -0.010249073617 -0.0036159420731 1.6934529515 -0.010187297265
          -0.0035869810975 1.6931121248 -0.010093767367 -0.0030106755413 1.6935909877 -0.010163598547
          -0.0032713705317 1.6947337903 -0.010436915385 -0.0033533928129 1.6946465233 -0.010451659612
          -0.0033812251384 1.6944526145 -0.010641856754 -0.0034035011198 1.6942602418 -0.010644190681
          -0.0033271441922 1.6940921289 -0.010629977439 -0.0033396199952 1.6939034306 -0.010642026638
          -0.0033624120596 1.6936275968 -0.010561829617 -0.00332016854 1.6934270318 -0.010624851807
          -0.0033686429345 1.6932015506 -0.010436141145 -0.0034435435464 1.6928587078 -0.010417675621
          -0.0031713430894 1.6949974426 -0.010763007171 -0.0031591026863 1.6946604564 -0.010783487725
          -0.0030114651742 1.6945577929 -0.010907954234 -0.0031356872308 1.6942542863 -0.010935973479
          -0.0031674944491 1.6940362545 -0.010959315831 -0.0031576272097 1.6938410557 -0.01090350589
          -0.0031743209451 1.6936253327 -0.010894272771 -0.0032747585594 1.6935315662 -0.010881629253