<?xml version="1.0"?>
<VTKFile type="UnstructuredGrid" version="0.1" byte_order="LittleEndian" compressor="vtkZLibDataCompressor">
  <UnstructuredGrid>
    <FieldData>
      <DataArray type="Float64" Name="TIME" NumberOfTuples="1" format="ascii" RangeMin="0.30911197206" RangeMax="0.30911197206">
        0.30911197206
      </DataArray>
    </FieldData>
    <Piece NumberOfPoints="1000" NumberOfCells="0">
      <PointData>
        <DataArray type="Float64" Name="Damage" format="ascii" RangeMin="0" RangeMax="0.49719101124">
          0 0 0 0 0 0
          0 0 0 0 0 0.027932960894
          0 0 0 0 0 0
          0.027932960894 0 0 0.055084745763 0.071428571429 0.040345821326
          0.014164305949 0.012987012987 0.040345821326 0.071428571429 0.055084745763 0
          0 0.067669172932 0.11239193084 0.1074168798 0.037688442211 0.034562211982
          0.1074168798 0.11239193084 0.067669172932 0 0 0.074349442379
          0.16147308782 0.16834170854 0.12376237624 0.11286681716 0.16834170854 0.16147308782
          0.074349442379 0 0 0.084459459459 0.2 0.25806451613
          0.33860045147 0.39211618257 0.25806451613 0.2 0.084459459459 0
          0 0.093984962406 0.25360230548 0.36061381074 0.41959798995 0.46774193548
          0.36061381074 0.25360230548 0.093984962406 0 0 0.10593220339
          0.31493506494 0.40057636888 0.4447592068 0.49090909091 0.40057636888 0.31493506494
          0.10593220339 0 0 0.16759776536 0.3686440678 0.43984962406
          0.44609665428 0.49662162162 0.43984962406 0.3686440678 0.16759776536 0
          0 0.1677852349 0.36734693878 0.43891402715 0.44642857143 0.49593495935
          0.43891402715 0.36734693878 0.1677852349 0 0 0
          0 0 0 0 0 0
          0 0 0 0.027906976744 0 0
          0 0 0 0 0.027906976744 0
          0 0.056338028169 0.072776280323 0.040669856459 0.014117647059 0.012931034483
          0.040669856459 0.072776280323 0.056338028169 0 0 0.06875
          0.11483253589 0.10828025478 0.0375782881 0.034416826004 0.10828025478 0.11483253589
          0.06875 0 0 0.074303405573 0.16235294118 0.16910229645
          0.12371134021 0.11257035647 0.16910229645 0.16235294118 0.074303405573 0
          0 0.084269662921 0.20043103448 0.25812619503 0.33771106942 0.39242685026
          0.25812619503 0.20043103448 0.084269662921 0 0 0.09375
          0.25358851675 0.36093418259 0.41962421712 0.46845124283 0.36093418259 0.25358851675
          0.09375 0 0 0.10563380282 0.3153638814 0.4019138756
          0.44470588235 0.49137931034 0.4019138756 0.3153638814 0.10563380282 0
          0 0.16744186047 0.36971830986 0.440625 0.44582043344 0.49719101124
          0.440625 0.36971830986 0.16744186047 0 0 0.16759776536
          0.3686440678 0.43984962406 0.44609665428 0.49662162162 0.43984962406 0.3686440678
          0.16759776536 0 0 0 0 0
          0 0 0 0 0 0
          0 0.024647887324 0 0 0 0
          0 0 0.024647887324 0 0 0.051212938005
          0.06875 0.038817005545 0.012635379061 0.011666666667 0.038817005545 0.06875
          0.051212938005 0 0 0.064593301435 0.10905730129 0.10491803279
          0.036858974359 0.034023668639 0.10491803279 0.10905730129 0.064593301435 0
          0 0.070588235294 0.15523465704 0.16506410256 0.12283464567 0.11271676301
          0.16506410256 0.15523465704 0.070588235294 0 0 0.081896551724
          0.19333333333 0.25443786982 0.33959537572 0.38985313752 0.25443786982 0.19333333333
          0.081896551724 0 0 0.093301435407 0.24768946396 0.35573770492
          0.41987179487 0.46449704142 0.35573770492 0.24768946396 0.093301435407 0
          0 0.10781671159 0.30833333333 0.39556377079 0.4440433213 0.48666666667
          0.39556377079 0.30833333333 0.10781671159 0 0 0.16197183099
          0.35579514825 0.43062200957 0.44470588235 0.49137931034 0.43062200957 0.35579514825
          0.16197183099 0 0 0.16101694915 0.3538961039 0.42939481268
          0.4447592068 0.49090909091 0.42939481268 0.3538961039 0.16101694915 0
          0 0 0 0 0 0
          0 0 0 0 0 0.025
          0 0 0 0 0 0
          0.025 0 0 0.05023923445 0.068391866913 0.039344262295
          0.012820512821 0.011834319527 0.039344262295 0.068391866913 0.05023923445 0
          0 0.063694267516 0.10819672131 0.10465116279 0.036984352774 0.034120734908
          0.10465116279 0.10819672131 0.063694267516 0 0 0.070981210856
          0.15544871795 0.16500711238 0.12290502793 0.11282051282 0.16500711238 0.15544871795
          0.070981210856 0 0 0.082217973231 0.19378698225 0.25459317585
          0.33974358974 0.38981042654 0.25459317585 0.19378698225 0.082217973231 0
          0 0.093418259023 0.24918032787 0.35610465116 0.41963015647 0.46456692913
          0.35610465116 0.24918032787 0.093418259023 0 0 0.10765550239
          0.30868761553 0.39508196721 0.44391025641 0.48668639053 0.39508196721 0.30868761553
          0.10765550239 0 0 0.1625 0.35645933014 0.43099787686
          0.44467640919 0.4913957935 0.43099787686 0.35645933014 0.1625 0
          0 0.16165413534 0.35446685879 0.42966751918 0.44472361809 0.49078341014
          0.42966751918 0.35446685879 0.16165413534 0 0 0
          0 0 0 0 0 0
          0 0 0 0.02786377709 0 0
          0 0 0 0 0.02786377709 0
          0 0.054117647059 0.070397111913 0.040064102564 0.014173228346 0.013005780347
          0.040064102564 0.070397111913 0.054117647059 0 0 0.066805845511
          0.11057692308 0.106685633 0.037709497207 0.034615384615 0.106685633 0.11057692308
          0.066805845511 0 0 0.074226804124 0.16062992126 0.16759776536
          0.12362637363 0.11292346299 0.16759776536 0.16062992126 0.074226804124 0
          0 0.084427767355 0.19942196532 0.25769230769 0.33877038896 0.39145496536
          0.25769230769 0.19942196532 0.084427767355 0 0 0.093945720251
          0.25320512821 0.35988620199 0.41899441341 0.46666666667 0.35988620199 0.25320512821
          0.093945720251 0 0 0.10588235294 0.31407942238 0.39903846154
          0.44409448819 0.48988439306 0.39903846154 0.31407942238 0.10588235294 0
          0 0.16718266254 0.36705882353 0.43841336117 0.44536082474 0.49530956848
          0.43841336117 0.36705882353 0.16718266254 0 0 0.16728624535
          0.36543909348 0.43718592965 0.44554455446 0.49435665914 0.43718592965 0.36543909348
          0.16728624535 0 0 0 0 0
          0 0 0 0 0 0
          0 0.025280898876 0 0 0 0
          0 0 0.025280898876 0 0 0.049568965517
          0.066666666667 0.038461538462 0.013005780347 0.012016021362 0.038461538462 0.066666666667
          0.049568965517 0 0 0.06309751434 0.1050295858 0.10367454068
          0.037179487179 0.034360189573 0.10367454068 0.1050295858 0.06309751434 0
          0 0.071294559099 0.15462427746 0.1641025641 0.12296110414 0.11316397229
          0.1641025641 0.15462427746 0.071294559099 0 0 0.082616179002
          0.19359145527 0.25473933649 0.34064665127 0.38930481283 0.25473933649 0.19359145527
          0.082616179002 0 0 0.093690248566 0.24852071006 0.35564304462
          0.41923076923 0.46327014218 0.35564304462 0.24852071006 0.093690248566 0
          0 0.10775862069 0.30833333333 0.39349112426 0.4436416185 0.48598130841
          0.39349112426 0.30833333333 0.10775862069 0 0 0.16292134831
          0.35560344828 0.43021032505 0.44465290807 0.49053356282 0.43021032505 0.35560344828
          0.16292134831 0 0 0.16216216216 0.35324675325 0.42857142857
          0.44469525959 0.48962655602 0.42857142857 0.35324675325 0.16216216216 0
          0 0 0 0 0 0
          0 0 0 0 0 0.025
          0 0 0 0 0 0
          0.025 0 0 0.05023923445 0.068391866913 0.039344262295
          0.012820512821 0.011834319527 0.039344262295 0.068391866913 0.05023923445 0
          0 0.063694267516 0.10819672131 0.10465116279 0.036984352774 0.034120734908
          0.10465116279 0.10819672131 0.063694267516 0 0 0.070981210856
          0.15544871795 0.16500711238 0.12290502793 0.11282051282 0.16500711238 0.15544871795
          0.070981210856 0 0 0.082217973231 0.19378698225 0.25459317585
          0.33974358974 0.38981042654 0.25459317585 0.19378698225 0.082217973231 0
          0 0.093418259023 0.24918032787 0.35610465116 0.41963015647 0.46456692913
          0.35610465116 0.24918032787 0.093418259023 0 0 0.10765550239
          0.30868761553 0.39508196721 0.44391025641 0.48668639053 0.39508196721 0.30868761553
          0.10765550239 0 0 0.1625 0.35645933014 0.43099787686
          0.44467640919 0.4913957935 0.43099787686 0.35645933014 0.1625 0
          0 0.16165413534 0.35446685879 0.42966751918 0.44472361809 0.49078341014
          0.42966751918 0.35446685879 0.16165413534 0 0 0
          0 0 0 0 0 0
          0 0 0 0.024647887324 0 0
          0 0 0 0 0.024647887324 0
          0 0.051212938005 0.06875 0.038817005545 0.012635379061 0.011666666667
          0.038817005545 0.06875 0.051212938005 0 0 0.064593301435
          0.10905730129 0.10491803279 0.036858974359 0.034023668639 0.10491803279 0.10905730129
          0.064593301435 0 0 0.070588235294 0.15523465704 0.16506410256
          0.12283464567 0.11271676301 0.16506410256 0.15523465704 0.070588235294 0
          0 0.081896551724 0.19333333333 0.25443786982 0.33959537572 0.38985313752
          0.25443786982 0.19333333333 0.081896551724 0 0 0.093301435407
          0.24768946396 0.35573770492 0.41987179487 0.46449704142 0.35573770492 0.24768946396
          0.093301435407 0 0 0.10781671159 0.30833333333 0.39556377079
          0.4440433213 0.48666666667 0.39556377079 0.30833333333 0.10781671159 0
          0 0.16197183099 0.35579514825 0.43062200957 0.44470588235 0.49137931034
          0.43062200957 0.35579514825 0.16197183099 0 0 0.16101694915
          0.3538961039 0.42939481268 0.4447592068 0.49090909091 0.42939481268 0.3538961039
          0.16101694915 0 0 0 0 0
          0 0 0 0 0 0
          0 0.027906976744 0 0 0 0
          0 0 0.027906976744 0 0 0.056338028169
          0.072776280323 0.040669856459 0.014117647059 0.012931034483 0.040669856459 0.072776280323
          0.056338028169 0 0 0.06875 0.11483253589 0.10828025478
          0.0375782881 0.034416826004 0.10828025478 0.11483253589 0.06875 0
          0 0.074303405573 0.16235294118 0.16910229645 0.12371134021 0.11257035647
          0.16910229645 0.16235294118 0.074303405573 0 0 0.084269662921
          0.20043103448 0.25812619503 0.33771106942 0.39242685026 0.25812619503 0.20043103448
          0.084269662921 0 0 0.09375 0.25358851675 0.36093418259
          0.41962421712 0.46845124283 0.36093418259 0.25358851675 0.09375 0
          0 0.10563380282 0.3153638814 0.4019138756 0.44470588235 0.49137931034
          0.4019138756 0.3153638814 0.10563380282 0 0 0.16744186047
          0.36971830986 0.440625 0.44582043344 0.49719101124 0.440625 0.36971830986
          0.16744186047 0 0 0.16759776536 0.3686440678 0.43984962406
          0.44609665428 0.49662162162 0.43984962406 0.3686440678 0.16759776536 0
          0 0 0 0 0 0
          0 0 0 0 0 0.027932960894
          0 0 0 0 0 0
          0.027932960894 0 0 0.055084745763 0.071428571429 0.040345821326
          0.014164305949 0.012987012987 0.040345821326 0.071428571429 0.055084745763 0
          0 0.067669172932 0.11239193084 0.1074168798 0.037688442211 0.034562211982
          0.1074168798 0.11239193084 0.067669172932 0 0 0.074349442379
          0.16147308782 0.16834170854 0.12376237624 0.11286681716 0.16834170854 0.16147308782
          0.074349442379 0 0 0.084459459459 0.2 0.25806451613
          0.33860045147 0.39211618257 0.25806451613 0.2 0.084459459459 0
          0 0.093984962406 0.25360230548 0.36061381074 0.41959798995 0.46774193548
          0.36061381074 0.25360230548 0.093984962406 0 0 0.10593220339
          0.31493506494 0.40057636888 0.4447592068 0.49090909091 0.40057636888 0.31493506494
          0.10593220339 0 0 0.16759776536 0.3686440678 0.43984962406
          0.44609665428 0.49662162162 0.43984962406 0.3686440678 0.16759776536 0
          0 0.1677852349 0.36734693878 0.43891402715 0.44642857143 0.49593495935
          0.43891402715 0.36734693878 0.1677852349 0
        </DataArray>
        <DataArray type="Float64" Name="Displacement" NumberOfComponents="3" format="ascii" RangeMin="1.0313872945" RangeMax="1.0538172036">
          -0.0091168954137 1.0361240096 -0.027579930976 -0.011390274339 1.0427393272 -0.030385434953
          -0.010293354049 1.0444832332 -0.032007814221 -0.010825758253 1.0417843042 -0.029617736592
          -0.011090906969 1.0406067381 -0.029145614323 -0.011487443803 1.0413047831 -0.029668236941
          -0.011695015369 1.040014082 -0.029533144963 -0.012235907664 1.0417547144 -0.031968035063
          -0.011208977366 1.0388231129 -0.030169558585 -0.013679403567 1.0309285267 -0.027549917002
          -0.010892969705 1.0420362474 -0.030277732109 -0.0088725095505 1.0389278273 -0.028889151627
          -0.01001527794 1.03968803 -0.028969315298 -0.010271350966 1.0403106246 -0.02943470639
          -0.011027342993 1.0400135781 -0.029440372548 -0.010741994858 1.0394129813 -0.029550156613
          -0.011169821503 1.0387097465 -0.029491961477 -0.011425879394 1.0367137225 -0.028828586082
          -0.012731097011 1.0350756791 -0.02883112959 -0.010366745629 1.0368680538 -0.03008093819
          -0.011764882713 1.0399028055 -0.027362665836 -0.009251217514 1.0408834881 -0.030906546169
          -0.0095905365842 1.039873564 -0.03009241732 -0.010294264969 1.0403099557 -0.029860297368
          -0.010007440948 1.0394119837 -0.029654604045 -0.010323805997 1.0379201128 -0.028645282083
          -0.0099332347601 1.0387357482 -0.029827500844 -0.010765128374 1.037112396 -0.030041661299
          -0.011018519908 1.036934429 -0.030805878373 -0.0087013248558 1.0349092642 -0.027413098752
          -0.011613755905 1.0407625604 -0.029097106929 -0.0098910833638 1.0401683431 -0.029448746263
          -0.0095699528252 1.0402584931 -0.030553378299 -0.0094278641563 1.0399381695 -0.030776340065
          -0.0096070100079 1.0392629637 -0.030219604416 -0.0096282566793 1.0386007576 -0.030697338282
          -0.0095942530598 1.0379996982 -0.030390629569 -0.0096434306459 1.0376199627 -0.030492287281
          -0.0092707998688 1.0363164546 -0.029378640343 -0.0077553506545 1.0356593114 -0.029094441806
          -0.009671107351 1.0404257839 -0.031208774888 -0.0098207227227 1.0411452393 -0.030984504514
          -0.0093107339395 1.0398949523 -0.031611425831 -0.0085605934422 1.0402859428 -0.031643022761
          -0.0089270998738 1.0392842948 -0.031093471686 -0.0091485115305 1.0387124296 -0.031334235444
          -0.009607421928 1.038519462 -0.031631099844 -0.0087794297406 1.0372052826 -0.031503989435
          -0.0082277571677 1.0371687317 -0.030913944876 -0.0084863941343 1.03542634 -0.031176773792
          -0.0090991689666 1.0414443211 -0.032336538106 -0.00867479924 1.0405468248 -0.031927620736
          -0.0087439687762 1.0402617075 -0.032189750757 -0.0089515525661 1.0398266649 -0.0316976031
          -0.0087070114418 1.0388246496 -0.03212936363 -0.0083879760992 1.0382973231 -0.032218995592
          -0.0081557506612 1.038214153 -0.03177965434 -0.0082491275227 1.0375342598 -0.032004942964
          -0.0082621367626 1.0365982406 -0.031875158857 -0.0078307532343 1.0364255317 -0.03223056707
          -0.0103040958 1.0412185239 -0.031482906232 -0.0097905685718 1.039743533 -0.032440747933
          -0.0085555892968 1.0401132563 -0.033156545025 -0.010059534821 1.0396591403 -0.032643643029
          -0.0086673898699 1.040599259 -0.032343073963 -0.0071713936185 1.0400519245 -0.032299808632
          -0.0057575143036 1.0380218252 -0.032757538754 -0.0072909794816 1.0372564644 -0.03316926322
          -0.0059661480705 1.0358424405 -0.032350491122 -0.0055033779174 1.0360888588 -0.031403821058
          -0.0092659486517 1.0403412399 -0.032167193566 -0.012630741597 1.0404605972 -0.031250913592
          -0.010999055651 1.039465285 -0.033337580611 -0.0077284473043 1.0396089394 -0.033574773651
          -0.0071703669927 1.0401873034 -0.032447108285 -0.007494432336 1.039677013 -0.032493539824
          -0.0069775423294 1.0379619563 -0.033545266684 -0.0035781145498 1.0366284252 -0.033316332005
          -0.0020544950867 1.0364182436 -0.031255242649 -0.005377795862 1.0352470149 -0.031976453443
          -0.0085486168189 1.0400249994 -0.031193447679 -0.0014999068276 1.0410603303 -0.035959585233
          -0.0076922122981 1.0409466933 -0.033224417035 -0.0094067564413 1.0403003504 -0.033190653825
          -0.0084335462363 1.0404928909 -0.036555110281 -0.0046706747797 1.0398047715 -0.036386275636
          -0.0042718287486 1.0385062622 -0.033163210066 -0.0059669919155 1.0380677986 -0.033208689902
          -0.011851056153 1.0371154423 -0.035745846497 -0.0050869471847 1.0348473499 -0.031170598909
          -0.0037562701255 1.0461064129 -0.03334057878 -0.0069202706872 1.041449193 -0.035631971326
          -0.0098309436368 1.0403630429 -0.036668092973 -0.009265166489 1.0338977408 -0.041817880106
          0.00011484547708 1.0409027984 -0.028945482525 -0.012405115202 1.0404508512 -0.029074595529
          -0.0031549708956 1.031960063 -0.042005357333 -0.0024888977155 1.0375309776 -0.036645955382
          -0.0054825718182 1.037637127 -0.03544810403 -0.0084157061329 1.040876076 -0.033289491582
          -0.0092143396964 1.0394804512 -0.029319356649 -0.010923781721 1.0423262222 -0.029146426274
          -0.011153152954 1.0408735383 -0.027845778674 -0.011057342917 1.0402569067 -0.028208507551
          -0.011319681504 1.040063072 -0.028106465702 -0.011210862135 1.0394255974 -0.028159668564
          -0.011396868923 1.0386736105 -0.028246146674 -0.011432442801 1.0380425347 -0.027761327832
          -0.011618289514 1.0384707326 -0.029019059816 -0.013323552181 1.0343536278 -0.0292088092
          -0.01180292198 1.0442206083 -0.029692651324 -0.010621006567 1.0421492308 -0.028892087185
          -0.011328361294 1.0417485623 -0.028696263596 -0.010555191899 1.0406608477 -0.028873872565
          -0.01063535986 1.0407293759 -0.029372900217 -0.010774841849 1.0396583985 -0.02894543014
          -0.010982426349 1.0391267088 -0.029068452281 -0.010075510058 1.0390418645 -0.028666718541
          -0.01085024176 1.0382534253 -0.028858391873 -0.0097130766738 1.0391132887 -0.02956886257
          -0.011194537164 1.0421572377 -0.028522622967 -0.010185543259 1.0418308537 -0.030107208676
          -0.010632781173 1.0409070419 -0.02899440082 -0.010189868398 1.0406122903 -0.029602974621
          -0.01021492934 1.0402269504 -0.029656709949 -0.010182670115 1.0396802107 -0.029663723758
          -0.010123832704 1.0388666461 -0.029434572929 -0.0097454397808 1.0381285592 -0.028960219302
          -0.010116534039 1.0379558323 -0.030129135509 -0.0091627577317 1.037154103 -0.028389108032
          -0.0096864730892 1.0420003104 -0.030253320528 -0.0098257329776 1.0416334231 -0.030275361586
          -0.0095914222324 1.041082238 -0.030631843791 -0.0094740273786 1.0408909231 -0.030736419924
          -0.0096065636299 1.0402792031 -0.030497377626 -0.0096076039978 1.0397360516 -0.030512095259
          -0.0096903609394 1.0392055493 -0.030643028568 -0.0095306972225 1.0383172503 -0.03054145816
          -0.0093942231202 1.0376895867 -0.030242588293 -0.0094650693061 1.0369997991 -0.030189657122
          -0.009564854232 1.0415058336 -0.030817746544 -0.0095847563609 1.0414938762 -0.030807741624
          -0.0093117687647 1.0411035112 -0.031095765915 -0.0091947662086 1.0406175279 -0.031468316526
          -0.0089603546427 1.0404712624 -0.031255413023 -0.0090899067812 1.0398933178 -0.03138551403
          -0.0088545911274 1.0388562717 -0.03154794179 -0.0087349917771 1.038266412 -0.031024848428
          -0.0085502422182 1.0375616429 -0.030692598292 -0.0085367582612 1.0364980119 -0.030731528007
          -0.010325610808 1.040884408 -0.030947402135 -0.0094957826114 1.0412862304 -0.031594165628
          -0.0087879913144 1.0410445624 -0.03214274885 -0.0094587138333 1.0403807958 -0.032117333745
          -0.0091934341374 1.0401210534 -0.032336724312 -0.0078602770708 1.0395674977 -0.032378314266
          -0.007564357101 1.0387482251 -0.031962284391 -0.0081128059739 1.0382261556 -0.032111865865
          -0.0074162529745 1.0373631985 -0.031543624371 -0.0066510379613 1.0358562325 -0.030820657854
          -0.0087598587201 1.0417976991 -0.03247951665 -0.0092314277271 1.0411676425 -0.032545396626
          -0.0088353846396 1.0409851683 -0.032915778571 -0.0078342974951 1.0405381382 -0.032855507857
          -0.0093081618106 1.0401471875 -0.033707146445 -0.0065812768017 1.0392543545 -0.033757123946
          -0.0079949385932 1.0387931871 -0.032929605076 -0.0069660502627 1.0381560947 -0.032885218771
          -0.0066032877475 1.0372297486 -0.03248718397 -0.0070607174235 1.0367305455 -0.032343468931
          -0.0074239824925 1.0414156751 -0.034952055 -0.0085887208729 1.0406023302 -0.033868309952
          -0.0078018782508 1.0407040143 -0.03400826028 -0.008499537937 1.0405115973 -0.033478590988
          -0.0084476870931 1.0399639822 -0.034216563432 -0.0062468917121 1.0394198957 -0.034203414926
          -0.0061149447104 1.0387931112 -0.033416720272 -0.006997468096 1.037830364 -0.033950549853
          -0.0061837866555 1.0366315902 -0.033820809913 -0.007255567718 1.0363811993 -0.034865321582
          -0.0070473082462 1.0438798188 -0.032702804513 -0.0091460746189 1.0396999439 -0.034560173471
          -0.0077640287729 1.040354589 -0.034700287954 -0.0076295720946 1.0399991279 -0.034531200826
          -0.0091867207819 1.0403023719 -0.036018894408 -0.0043855462803 1.0397392478 -0.035996184529
          -0.0059953596142 1.0382924717 -0.034489109287 -0.0058416156853 1.0375340517 -0.034630536828
          -0.0045012862412 1.0357646792 -0.034484569248 -0.0064699230491 1.0387054617 -0.032665812748
          -0.0070579235193 1.0457847615 -0.031388639292 -0.0099739544946 1.0387341598 -0.036659248962
          -0.0084538527698 1.0383349892 -0.038085849109 -0.0068220473368 1.0397395435 -0.036920377427
          -0.0097946950403 1.0431290873 -0.031947982959 -0.0026747871823 1.0424811822 -0.031832170088
          -0.0057055801071 1.037761977 -0.037071633325 -0.0040765975303 1.0353585333 -0.038077837429
          -0.0023693046205 1.0344768775 -0.036623227609 -0.0053598374301 1.0405733323 -0.031288344666
          -0.0088256277639 1.0407111642 -0.02859092353 -0.009902444934 1.041668236 -0.028339442283
          -0.011294554663 1.0420906716 -0.028265442587 -0.01151947776 1.0414377605 -0.02783408874
          -0.011118103623 1.0406606343 -0.027884288202 -0.011265729791 1.040040635 -0.027589412621
          -0.011129126086 1.039695051 -0.027730074056 -0.011311178057 1.039300324 -0.028188089005
          -0.012864479414 1.0377496288 -0.028257314186 -0.013991543164 1.0355734096 -0.02842884317
          -0.0088956042535 1.0405438806 -0.028839282419 -0.010579288653 1.0421177058 -0.028774272617
          -0.011063702217 1.0426159884 -0.029082756029 -0.010721908958 1.0415868086 -0.029034534328
          -0.010697784647 1.0408518618 -0.028914478153 -0.010765102485 1.0403610447 -0.028937769367
          -0.010776566243 1.0397324006 -0.02888166952 -0.010393037084 1.0398203973 -0.029049299502
          -0.01093044496 1.0382131956 -0.028755139716 -0.012697011612 1.0353723407 -0.028749770578
          -0.0099895752017 1.0423147059 -0.029625489889 -0.010953955646 1.0424951586 -0.029296153536
          -0.010028783651 1.0420471968 -0.02982250335 -0.010066103775 1.0417142252 -0.029861836402
          -0.010150983758 1.04104239 -0.029679897204 -0.010192209621 1.0405137766 -0.029662051793
          -0.010249820571 1.0399703101 -0.029821693019 -0.010250590169 1.0392261549 -0.029728327753
          -0.0093862633777 1.0385231904 -0.029213252725 -0.01041691517 1.037304357 -0.029559473126
          -0.0096682010476 1.0424690649 -0.03027977303 -0.0099410144881 1.042171497 -0.030266929168
          -0.0095458503946 1.0419213241 -0.030593045923 -0.009495928383 1.041641527 -0.030536601415
          -0.0096520210623 1.0410956845 -0.030545041744 -0.0096986882285 1.0405625732 -0.030509200084
          -0.0097083076948 1.039948084 -0.030492248995 -0.0096649083627 1.0391002861 -0.03052117617
          -0.0093519926579 1.0382446993 -0.030251371526 -0.0095781496414 1.0373386404 -0.030194631976
          -0.0089920343961 1.0425088951 -0.031609846325 -0.0091689072466 1.0421515394 -0.031294961513
          -0.0092574002295 1.0418805396 -0.031258070019 -0.0090827341717 1.0414451482 -0.031241646377
          -0.0090527328895 1.0410706414 -0.031268938958 -0.0090760863224 1.0405284313 -0.031293264553
          -0.0090015635038 1.0397354158 -0.031206383808 -0.0088213303941 1.0390636025 -0.031176983823
          -0.0089164402088 1.0382194836 -0.031238203853 -0.0090768104227 1.0374231815 -0.031500013076
          -0.0088701045304 1.0422867193 -0.032387298576 -0.0087397046005 1.0422643928 -0.032083391079
          -0.0088281676015 1.0417850142 -0.032069418704 -0.0087354617855 1.0413964656 -0.032088774902
          -0.0088710397724 1.0410247904 -0.032050846701 -0.0079800997091 1.0403936226 -0.032137146891
          -0.0082545015013 1.0398105607 -0.032071290836 -0.0081239401154 1.0389820846 -0.032016495472
          -0.0081619364698 1.0383341671 -0.031977648812 -0.0081166781966 1.0371551188 -0.032377315974
          -0.0092230629105 1.0421457377 -0.032201697253 -0.0085293473429 1.042309733 -0.032719045875
          -0.0090332865417 1.0416281684 -0.032790467579 -0.0083031967603 1.041432207 -0.033029464478
          -0.0081042609019 1.040888776 -0.032787089556 -0.0076866694692 1.0402577718 -0.032813992957
          -0.0074731192469 1.0397452169 -0.032966033158 -0.0067939071313 1.0388077493 -0.032720249591
          -0.0072600227817 1.0383706367 -0.03266880463 -0.0066178852604 1.0370674461 -0.032097562833
          -0.0081104426456 1.0419921079 -0.034261601733 -0.0089285750001 1.0420928799 -0.033222826527
          -0.0088417159024 1.0416248197 -0.033596334003 -0.007965086719 1.0413455556 -0.033675788748
          -0.0083234864248 1.0409995304 -0.033526970954 -0.0063968314608 1.0403416859 -0.033630945767
          -0.0066767030183 1.03963196 -0.033652638189 -0.0058620823897 1.0388397141 -0.033511279013
          -0.0058287163307 1.0382209768 -0.033213364584 -0.0066278415199 1.0369260929 -0.034223194305
          -0.0087677230839 1.041404621 -0.034004757494 -0.0077344813423 1.0418776639 -0.034687156803
          -0.0069211869382 1.0420165224 -0.034263477202 -0.0072948554802 1.0411701618 -0.034372062751
          -0.0062291135544 1.0394040165 -0.034857113668 -0.0073510318716 1.0387877295 -0.034846471242
          -0.0062852914195 1.0394542137 -0.034323325037 -0.0066491650056 1.0391528514 -0.034225842025
          -0.0058652667254 1.0379609958 -0.034617130977 -0.0047660060391 1.0362249552 -0.03392880729
          -0.0042604269819 1.0443833028 -0.035647685311 -0.0067198198024 1.0428190529 -0.034689137212
          -0.0076740484275 1.0429108703 -0.032884543778 -0.0038879185291 1.0412663058 -0.033650154784
          -0.0057534379433 1.0396097229 -0.034741717693 -0.006976009449 1.0388582802 -0.034726195749
          -0.0084600968308 1.0395827705 -0.033636162665 -0.0048171161214 1.0400645974 -0.032922678794
          -0.005762256663 1.0388440901 -0.034641322225 -0.0082489122635 1.0394809951 -0.035514150698
          -0.0093374175499 1.0419110732 -0.028556026961 -0.011290860208 1.0433812995 -0.028618571608
          -0.011194344935 1.0430363773 -0.028431802478 -0.011208995717 1.0427359177 -0.028508742671
          -0.01117855681 1.0417233099 -0.02784161327 -0.011211913368 1.04112023 -0.027902000052
          -0.011424375055 1.0410218349 -0.028506031112 -0.011290327315 1.0402507681 -0.028350368485
          -0.01140420291 1.0394547515 -0.028610452456 -0.013341854213 1.0368899399 -0.028465357403
          -0.010592569547 1.0440173426 -0.029516206749 -0.010528872257 1.042945009 -0.028653976973
          -0.010553040986 1.0427070508 -0.028951441953 -0.010718987178 1.0425672111 -0.029094855501
          -0.010707298383 1.0419368322 -0.029043686935 -0.010772729171 1.0413356159 -0.02903731664
          -0.01072575787 1.0409806983 -0.029100289599 -0.010916783848 1.0398707996 -0.028856988492
          -0.010949593829 1.0390460428 -0.028545858497 -0.010922790079 1.038872423 -0.029475953977
          -0.00963259481 1.0427047326 -0.029599333915 -0.010062939809 1.0429281752 -0.029584438458
          -0.010059560277 1.0427489578 -0.029795200677 -0.010123981554 1.0423832732 -0.029733793989
          -0.01013652999 1.0418917407 -0.029798371778 -0.010242109922 1.0413747212 -0.029803619473
          -0.01021176055 1.0406965331 -0.029724594585 -0.010294923047 1.0399519558 -0.029703269312
          -0.010285424764 1.0389897769 -0.029513078011 -0.010676623521 1.0377354204 -0.029519673473
          -0.01000416181 1.043376144 -0.030333284308 -0.0097280099541 1.0431055112 -0.030448042155
          -0.0096244706983 1.0427326173 -0.030477591766 -0.0095758884615 1.042364383 -0.030418829723
          -0.0095683127066 1.0418689478 -0.030532570998 -0.0096564450559 1.0412319939 -0.030500310703
          -0.0096683482458 1.0406709043 -0.030443789886 -0.009635066283 1.039932557 -0.030430382179
          -0.0095448167971 1.0391588595 -0.030398597732 -0.0093686428793 1.0382579622 -0.030305944677
          -0.0094503416201 1.0434673437 -0.031211409251 -0.0095528228152 1.0430160585 -0.031120010777
          -0.0094189825147 1.042556321 -0.031134191397 -0.0090858158124 1.0421760841 -0.031353064094
          -0.0090289956678 1.0418546685 -0.0312292307 -0.0091354710859 1.0412889821 -0.031300970314
          -0.0090141765225 1.0405526698 -0.031313651363 -0.0087472842138 1.0397408294 -0.031087527719
          -0.0085539667039 1.0390825751 -0.031060341636 -0.0086664743873 1.0384212967 -0.031118839675
          -0.0089173612034 1.0436089116 -0.03205732284 -0.0088071564078 1.0431005765 -0.032096987545