<?xml version="1.0"?>
<VTKFile type="UnstructuredGrid" version="0.1" byte_order="LittleEndian" compressor="vtkZLibDataCompressor">
  <UnstructuredGrid>
    <FieldData>
      <DataArray type="Float64" Name="TIME" NumberOfTuples="1" format="ascii" RangeMin="0.21137439918" RangeMax="0.21137439918">
        0.21137439918
      </DataArray>
    </FieldData>
    <Piece NumberOfPoints="1000" NumberOfCells="0">
      <PointData>
        <DataArray type="Float64" Name="Damage" format="ascii" RangeMin="0" RangeMax="0.49719101124">
          0 0 0 0 0 0
          0 0 0 0 0 0.027932960894
          0 0 0 0 0 0
          0.027932960894 0 0 0.055084745763 0.071428571429 0.040345821326
          0.014164305949 0.012987012987 0.040345821326 0.071428571429 0.055084745763 0
          0 0.067669172932 0.11239193084 0.1074168798 0.037688442211 0.034562211982
          0.1074168798 0.11239193084 0.067669172932 0 0 0.074349442379
          0.16147308782 0.16834170854 0.12376237624 0.11286681716 0.16834170854 0.16147308782
          0.074349442379 0 0 0.084459459459 0.2 0.25806451613
          0.33860045147 0.39211618257 0.25806451613 0.2 0.084459459459 0
          0 0.093984962406 0.25360230548 0.36061381074 0.41959798995 0.46774193548
          0.36061381074 0.25360230548 0.093984962406 0 0 0.10593220339
          0.31493506494 0.40057636888 0.4447592068 0.49090909091 0.40057636888 0.31493506494
          0.10593220339 0 0 0.16759776536 0.3686440678 0.43984962406
          0.44609665428 0.49662162162 0.43984962406 0.3686440678 0.16759776536 0
          0 0.1677852349 0.36734693878 0.43891402715 0.44642857143 0.49593495935
          0.43891402715 0.36734693878 0.1677852349 0 0 0
          0 0 0 0 0 0
          0 0 0 0.027906976744 0 0
          0 0 0 0 0.027906976744 0
          0 0.056338028169 0.072776280323 0.040669856459 0.014117647059 0.012931034483
          0.040669856459 0.072776280323 0.056338028169 0 0 0.06875
          0.11483253589 0.10828025478 0.0375782881 0.034416826004 0.10828025478 0.11483253589
          0.06875 0 0 0.074303405573 0.16235294118 0.16910229645
          0.12371134021 0.11257035647 0.16910229645 0.16235294118 0.074303405573 0
          0 0.084269662921 0.20043103448 0.25812619503 0.33771106942 0.39242685026
          0.25812619503 0.20043103448 0.084269662921 0 0 0.09375
          0.25358851675 0.36093418259 0.41962421712 0.46845124283 0.36093418259 0.25358851675
          0.09375 0 0 0.10563380282 0.3153638814 0.4019138756
          0.44470588235 0.49137931034 0.4019138756 0.3153638814 0.10563380282 0
          0 0.16744186047 0.36971830986 0.440625 0.44582043344 0.49719101124
          0.440625 0.36971830986 0.16744186047 0 0 0.16759776536
          0.3686440678 0.43984962406 0.44609665428 0.49662162162 0.43984962406 0.3686440678
          0.16759776536 0 0 0 0 0
          0 0 0 0 0 0
          0 0.024647887324 0 0 0 0
          0 0 0.024647887324 0 0 0.051212938005
          0.06875 0.038817005545 0.012635379061 0.011666666667 0.038817005545 0.06875
          0.051212938005 0 0 0.064593301435 0.10905730129 0.10491803279
          0.036858974359 0.034023668639 0.10491803279 0.10905730129 0.064593301435 0
          0 0.070588235294 0.15523465704 0.16506410256 0.12283464567 0.11271676301
          0.16506410256 0.15523465704 0.070588235294 0 0 0.081896551724
          0.19333333333 0.25443786982 0.33959537572 0.38985313752 0.25443786982 0.19333333333
          0.081896551724 0 0 0.093301435407 0.24768946396 0.35573770492
          0.41987179487 0.46449704142 0.35573770492 0.24768946396 0.093301435407 0
          0 0.10781671159 0.30833333333 0.39556377079 0.4440433213 0.48666666667
          0.39556377079 0.30833333333 0.10781671159 0 0 0.16197183099
          0.35579514825 0.43062200957 0.44470588235 0.49137931034 0.43062200957 0.35579514825
          0.16197183099 0 0 0.16101694915 0.3538961039 0.42939481268
          0.4447592068 0.49090909091 0.42939481268 0.3538961039 0.16101694915 0
          0 0 0 0 0 0
          0 0 0 0 0 0.025
          0 0 0 0 0 0
          0.025 0 0 0.05023923445 0.068391866913 0.039344262295
          0.012820512821 0.011834319527 0.039344262295 0.068391866913 0.05023923445 0
          0 0.063694267516 0.10819672131 0.10465116279 0.036984352774 0.034120734908
          0.10465116279 0.10819672131 0.063694267516 0 0 0.070981210856
          0.15544871795 0.16500711238 0.12290502793 0.11282051282 0.16500711238 0.15544871795
          0.070981210856 0 0 0.082217973231 0.19378698225 0.25459317585
          0.33974358974 0.38981042654 0.25459317585 0.19378698225 0.082217973231 0
          0 0.093418259023 0.24918032787 0.35610465116 0.41963015647 0.46456692913
          0.35610465116 0.24918032787 0.093418259023 0 0 0.10765550239
          0.30868761553 0.39508196721 0.44391025641 0.48668639053 0.39508196721 0.30868761553
          0.10765550239 0 0 0.1625 0.35645933014 0.43099787686
          0.44467640919 0.4913957935 0.43099787686 0.35645933014 0.1625 0
          0 0.16165413534 0.35446685879 0.42966751918 0.44472361809 0.49078341014
          0.42966751918 0.35446685879 0.16165413534 0 0 0
          0 0 0 0 0 0
          0 0 0 0.02786377709 0 0
          0 0 0 0 0.02786377709 0
          0 0.054117647059 0.070397111913 0.040064102564 0.014173228346 0.013005780347
          0.040064102564 0.070397111913 0.054117647059 0 0 0.066805845511
          0.11057692308 0.106685633 0.037709497207 0.034615384615 0.106685633 0.11057692308
          0.066805845511 0 0 0.074226804124 0.16062992126 0.16759776536
          0.12362637363 0.11292346299 0.16759776536 0.16062992126 0.074226804124 0
          0 0.084427767355 0.19942196532 0.25769230769 0.33877038896 0.39145496536
          0.25769230769 0.19942196532 0.084427767355 0 0 0.093945720251
          0.25320512821 0.35988620199 0.41899441341 0.46666666667 0.35988620199 0.25320512821
          0.093945720251 0 0 0.10588235294 0.31407942238 0.39903846154
          0.44409448819 0.48988439306 0.39903846154 0.31407942238 0.10588235294 0
          0 0.16718266254 0.36705882353 0.43841336117 0.44536082474 0.49530956848
          0.43841336117 0.36705882353 0.16718266254 0 0 0.16728624535
          0.36543909348 0.43718592965 0.44554455446 0.49435665914 0.43718592965 0.36543909348
          0.16728624535 0 0 0 0 0
          0 0 0 0 0 0
          0 0.025280898876 0 0 0 0
          0 0 0.025280898876 0 0 0.049568965517
          0.066666666667 0.038461538462 0.013005780347 0.012016021362 0.038461538462 0.066666666667
          0.049568965517 0 0 0.06309751434 0.1050295858 0.10367454068
          0.037179487179 0.034360189573 0.10367454068 0.1050295858 0.06309751434 0
          0 0.071294559099 0.15462427746 0.1641025641 0.12296110414 0.11316397229
          0.1641025641 0.15462427746 0.071294559099 0 0 0.082616179002
          0.19359145527 0.25473933649 0.34064665127 0.38930481283 0.25473933649 0.19359145527
          0.082616179002 0 0 0.093690248566 0.24852071006 0.35564304462
          0.41923076923 0.46327014218 0.35564304462 0.24852071006 0.093690248566 0
          0 0.10775862069 0.30833333333 0.39349112426 0.4436416185 0.48598130841
          0.39349112426 0.30833333333 0.10775862069 0 0 0.16292134831
          0.35560344828 0.43021032505 0.44465290807 0.49053356282 0.43021032505 0.35560344828
          0.16292134831 0 0 0.16216216216 0.35324675325 0.42857142857
          0.44469525959 0.48962655602 0.42857142857 0.35324675325 0.16216216216 0
          0 0 0 0 0 0
          0 0 0 0 0 0.025
          0 0 0 0 0 0
          0.025 0 0 0.05023923445 0.068391866913 0.039344262295
          0.012820512821 0.011834319527 0.039344262295 0.068391866913 0.05023923445 0
          0 0.063694267516 0.10819672131 0.10465116279 0.036984352774 0.034120734908
          0.10465116279 0.10819672131 0.063694267516 0 0 0.070981210856
          0.15544871795 0.16500711238 0.12290502793 0.11282051282 0.16500711238 0.15544871795
          0.070981210856 0 0 0.082217973231 0.19378698225 0.25459317585
          0.33974358974 0.38981042654 0.25459317585 0.19378698225 0.082217973231 0
          0 0.093418259023 0.24918032787 0.35610465116 0.41963015647 0.46456692913
          0.35610465116 0.24918032787 0.093418259023 0 0 0.10765550239
          0.30868761553 0.39508196721 0.44391025641 0.48668639053 0.39508196721 0.30868761553
          0.10765550239 0 0 0.1625 0.35645933014 0.43099787686
          0.44467640919 0.4913957935 0.43099787686 0.35645933014 0.1625 0
          0 0.16165413534 0.35446685879 0.42966751918 0.44472361809 0.49078341014
          0.42966751918 0.35446685879 0.16165413534 0 0 0
          0 0 0 0 0 0
          0 0 0 0.024647887324 0 0
          0 0 0 0 0.024647887324 0
          0 0.051212938005 0.06875 0.038817005545 0.012635379061 0.011666666667
          0.038817005545 0.06875 0.051212938005 0 0 0.064593301435
          0.10905730129 0.10491803279 0.036858974359 0.034023668639 0.10491803279 0.10905730129
          0.064593301435 0 0 0.070588235294 0.15523465704 0.16506410256
          0.12283464567 0.11271676301 0.16506410256 0.15523465704 0.070588235294 0
          0 0.081896551724 0.19333333333 0.25443786982 0.33959537572 0.38985313752
          0.25443786982 0.19333333333 0.081896551724 0 0 0.093301435407
          0.24768946396 0.35573770492 0.41987179487 0.46449704142 0.35573770492 0.24768946396
          0.093301435407 0 0 0.10781671159 0.30833333333 0.39556377079
          0.4440433213 0.48666666667 0.39556377079 0.30833333333 0.10781671159 0
          0 0.16197183099 0.35579514825 0.43062200957 0.44470588235 0.49137931034
          0.43062200957 0.35579514825 0.16197183099 0 0 0.16101694915
          0.3538961039 0.42939481268 0.4447592068 0.49090909091 0.42939481268 0.3538961039
          0.16101694915 0 0 0 0 0
          0 0 0 0 0 0
          0 0.027906976744 0 0 0 0
          0 0 0.027906976744 0 0 0.056338028169
          0.072776280323 0.040669856459 0.014117647059 0.012931034483 0.040669856459 0.072776280323
          0.056338028169 0 0 0.06875 0.11483253589 0.10828025478
          0.0375782881 0.034416826004 0.10828025478 0.11483253589 0.06875 0
          0 0.074303405573 0.16235294118 0.16910229645 0.12371134021 0.11257035647
          0.16910229645 0.16235294118 0.074303405573 0 0 0.084269662921
          0.20043103448 0.25812619503 0.33771106942 0.39242685026 0.25812619503 0.20043103448
          0.084269662921 0 0 0.09375 0.25358851675 0.36093418259
          0.41962421712 0.46845124283 0.36093418259 0.25358851675 0.09375 0
          0 0.10563380282 0.3153638814 0.4019138756 0.44470588235 0.49137931034
          0.4019138756 0.3153638814 0.10563380282 0 0 0.16744186047
          0.36971830986 0.440625 0.44582043344 0.49719101124 0.440625 0.36971830986
          0.16744186047 0 0 0.16759776536 0.3686440678 0.43984962406
          0.44609665428 0.49662162162 0.43984962406 0.3686440678 0.16759776536 0
          0 0 0 0 0 0
          0 0 0 0 0 0.027932960894
          0 0 0 0 0 0
          0.027932960894 0 0 0.055084745763 0.071428571429 0.040345821326
          0.014164305949 0.012987012987 0.040345821326 0.071428571429 0.055084745763 0
          0 0.067669172932 0.11239193084 0.1074168798 0.037688442211 0.034562211982
          0.1074168798 0.11239193084 0.067669172932 0 0 0.074349442379
          0.16147308782 0.16834170854 0.12376237624 0.11286681716 0.16834170854 0.16147308782
          0.074349442379 0 0 0.084459459459 0.2 0.25806451613
          0.33860045147 0.39211618257 0.25806451613 0.2 0.084459459459 0
          0 0.093984962406 0.25360230548 0.36061381074 0.41959798995 0.46774193548
          0.36061381074 0.25360230548 0.093984962406 0 0 0.10593220339
          0.31493506494 0.40057636888 0.4447592068 0.49090909091 0.40057636888 0.31493506494
          0.10593220339 0 0 0.16759776536 0.3686440678 0.43984962406
          0.44609665428 0.49662162162 0.43984962406 0.3686440678 0.16759776536 0
          0 0.1677852349 0.36734693878 0.43891402715 0.44642857143 0.49593495935
          0.43891402715 0.36734693878 0.1677852349 0
        </DataArray>
        <DataArray type="Float64" Name="Displacement" NumberOfComponents="3" format="ascii" RangeMin="1.9465827398" RangeMax="1.9576283985">
          -0.0030380745914 1.956132226 -0.0035953311988 -0.0013049673735 1.9502392613 -0.0020908640415
          -0.0011880537758 1.9507317142 -0.0021298647549 -0.0010773107975 1.9505630633 -0.0019581558055
          -0.00094427979963 1.9503377507 -0.0018691032646 -0.00086974666365 1.950276752 -0.0017850947605
          -0.00089013468259 1.9503850327 -0.0019460804151 -0.00075177094337 1.9504447502 -0.0021139360945
          -0.00068759476693 1.9497961383 -0.0021037795813 0.0012651798239 1.955694348 -0.0035659222454
          -0.0015433938447 1.9508845898 -0.0029384745566 -0.0011976150399 1.9498540033 -0.0019014399508
          -0.0010883718823 1.9504396526 -0.0018911873566 -0.0012193459548 1.9511096272 -0.0023675552309
          -0.0010047687305 1.9510913326 -0.0025950301244 -0.00095449873838 1.9511288766 -0.0026513433573
          -0.00059503251095 1.9509746822 -0.0023690760101 -0.00076422498178 1.950165558 -0.0019023708872
          -0.00062123943949 1.9494619777 -0.0018935243171 -0.00033228643159 1.9503345268 -0.0029816466855
          -0.0011325663066 1.9513774084 -0.002527587707 -0.0015452154766 1.9511567174 -0.0021693275281
          -0.001395090828 1.9513930788 -0.0024282742844 -0.00077661147124 1.9511582169 -0.0026826694216
          -0.00088898818768 1.951191154 -0.0026435274733 -0.0008603619479 1.9511523787 -0.0027196631808
          -0.00095598145243 1.9509963656 -0.0026890684323 -0.00033676113901 1.9511259275 -0.0024396695951
          -0.00015791932519 1.9507738433 -0.0021576668147 -0.00061688358714 1.9508698956 -0.0025563076508
          -0.0012687999313 1.9516975523 -0.0022681506914 -0.0013887899876 1.9517744067 -0.0025471905427
          -0.00098267872814 1.9511726517 -0.0026969878349 -0.00072815108206 1.9513296242 -0.0029663425654
          -0.00083382659382 1.9511913045 -0.0026861004502 -0.00079161302875 1.9511077236 -0.002704945987
          -0.00088501702325 1.951171937 -0.0029544248989 -0.00063616838355 1.9508968451 -0.0026938692423
          -0.00021501147559 1.9513780468 -0.0025272781699 -0.00034158500473 1.9512013828 -0.0022638307843
          -0.0012300115763 1.9520859651 -0.0022075375756 -0.001053436804 1.9513221711 -0.0025484132259
          -0.00078680181666 1.9510785895 -0.0030140546726 -0.00084016183302 1.9511863253 -0.0030213304417
          -0.0011042406114 1.9506632567 -0.0031595223807 -0.00045242402537 1.9507248297 -0.0031208369736
          -0.00065192706556 1.9510116009 -0.0030105749662 -0.00071542613312 1.9508032111 -0.0030109857061
          -0.00043157668735 1.9509190759 -0.0025293137439 -0.00025342332813 1.9515729925 -0.0021832336576
          -0.0010790107698 1.9519547541 -0.0020345907936 -0.00091306560843 1.9516916797 -0.0024504849279
          -0.00062369639176 1.9514104375 -0.0029368928084 -0.00036117137706 1.9514139556 -0.0028937233658
          0.00012264929199 1.9514396806 -0.0022819931626 -0.0014886136598 1.9513799831 -0.0022882644417
          -0.0010202377484 1.9512433765 -0.0028874797504 -0.00076369076967 1.9511353073 -0.0029313465351
          -0.00044350671824 1.951299476 -0.0024279031589 -0.00026057465497 1.9514411153 -0.0019916208954
          -0.00057891121136 1.9522969012 -0.0022215954969 -0.001122844252 1.9514711546 -0.0024435874477
          -0.00028167321098 1.9512585431 -0.0032565054499 4.4175882928e-05 1.9511877038 -0.0030440821069
          0.00012301769287 1.9510696624 -0.0025739122143 -0.0013506373314 1.9510061786 -0.0026021612249
          -0.0012811311251 1.9510172168 -0.0030493115733 -0.00096948795523 1.9509821165 -0.0032447198341
          -9.3780665414e-05 1.9510757347 -0.0024082279301 -0.00063235728062 1.951786878 -0.0021664251382
          0.00029410149466 1.9534123432 -0.002014827659 -0.00097673937234 1.9519730973 -0.0019862690089
          -8.4148905853e-05 1.9515041568 -0.002769199189 0.00040938381066 1.9514432225 -0.0025127861926
          -0.00031007794925 1.9516409849 -0.0024868438579 -0.00078965375316 1.9516071721 -0.0025088250342
          -0.0015040730763 1.9512711218 -0.0025347776821 -0.0010100744407 1.9512151372 -0.0027696680585
          -9.1700672239e-05 1.9515705565 -0.0019440978658 -0.0013833405299 1.952935408 -0.0019352567711
          -0.00017699614731 1.9504248012 -0.0022075011868 0.0010853241701 1.9524613307 -0.0016419323592
          0.00011752192514 1.9526195772 -0.00082218965028 -0.00038364820022 1.9522972847 -0.0012122955875
          0.00013702943256 1.9499217241 -0.0025395782185 -0.0010900190092 1.9499547657 -0.0025277410339
          -0.00056364645532 1.952186617 -0.0011900854709 -0.001066951568 1.9523890366 -0.00076916065487
          -0.0020393367409 1.9521577525 -0.001523877542 -0.00082582688147 1.950016173 -0.0020789573622
          0.00019961540466 1.9469309921 -0.0074827145784 0.0011697208378 1.9530157742 -0.0018997824211
          0.0011307563059 1.9540500283 -0.00013710648098 -0.00063491816821 1.9531220957 -0.0013153751029
          0.001204402833 1.9489215856 -0.0050864673123 -0.0020582388999 1.9488816823 -0.0051175127191
          -0.00019660715977 1.9530555093 -0.0012540508548 -0.0019905457808 1.9539391185 7.8825939167e-06
          -0.0020644964856 1.9528567721 -0.001691010394 -0.0011636266561 1.9465682805 -0.0074120280899
          -0.00061538218814 1.9506176436 -0.0024331186182 -0.00084154712753 1.9504311964 -0.0011957162187
          -0.00083622343291 1.9506380681 -0.0013879613899 -0.0011147532356 1.9512730545 -0.0020153694668
          -0.00098129263049 1.9512786693 -0.0022807866968 -0.00095918793359 1.9513186486 -0.0023523149894
          -0.00080332840133 1.9511357382 -0.0020232715122 -0.0011169679826 1.950364505 -0.0013933758053
          -0.0011154691906 1.9500203675 -0.0011852580028 -0.0013883785769 1.9500244548 -0.0024601706279
          -0.00098843080634 1.9503512605 -0.0013692217021 -0.0010484972261 1.9515299755 -0.0024890189052
          -0.001153756296 1.9512205817 -0.0019925601885 -0.00090318987381 1.9513115388 -0.0024684899611
          -0.00090032578137 1.9514096709 -0.0026212787387 -0.00093912852137 1.9514045175 -0.002697889887
          -0.00092469621801 1.9511432292 -0.0024702567903 -0.00066472834124 1.9509547142 -0.001997161407
          -0.00077370504403 1.9511630923 -0.0025078355937 -0.00083717499275 1.949824157 -0.001360031429
          -0.0010774733695 1.9514228645 -0.0020678535905 -0.0014311161797 1.9520248848 -0.0025408498188
          -0.0007144032562 1.9517006378 -0.0031504109963 -0.00085145946945 1.9514683279 -0.0028008657078
          -0.00087816941875 1.9513497061 -0.0027054458873 -0.00085558349938 1.9512942406 -0.0027011976746
          -0.000871058144 1.9513041575 -0.0028066054806 -0.0010042273744 1.9514201848 -0.0031528903158
          -0.00029799712002 1.9516284101 -0.0025498447805 -0.00062725717344 1.9509225766 -0.0020599248991
          -0.00085633773346 1.9518748615 -0.0025653888969 -0.0010203762633 1.9516949282 -0.0024081440183
          -0.00072155797031 1.951716447 -0.0028445610886 -0.00079722466858 1.9515090478 -0.0027728687135
          -0.00082957064097 1.9513323098 -0.0027554123155 -0.00077073341115 1.9512810532 -0.0027669790683
          -0.00081068369829 1.9513381418 -0.0027774897472 -0.00088594308794 1.9514392657 -0.0028441406423
          -0.00059815543867 1.9513043797 -0.0024131695732 -0.00074911511086 1.9513543236 -0.0025473552515
          -0.00060818506867 1.9516074594 -0.002599573319 -0.00085727619505 1.9516866949 -0.0026636735579
          -0.00068193525628 1.9515280145 -0.0029574429298 -0.00080408216662 1.9513731554 -0.0029723335512
          -0.00078558260423 1.9513087391 -0.0030069259826 -0.00072906161491 1.9512762954 -0.0029953695714
          -0.00069317675237 1.9512129167 -0.0029742688083 -0.00081572276678 1.9512490685 -0.0029520501417
          -0.00064631180544 1.951300989 -0.0026683489792 -0.00087434945214 1.9510925322 -0.0025831178688
          -0.00032604013527 1.9521558252 -0.0025434384354 -0.0005886069365 1.951849405 -0.0025269939386
          -0.00049303335874 1.951618155 -0.0028317622991 -0.00081101202583 1.9513156852 -0.0029702574296
          -0.00022527738932 1.9513830605 -0.0024303113322 -0.0011497953401 1.9513340138 -0.0024458551187
          -0.00056981377395 1.9511572606 -0.0029828558094 -0.00088031187589 1.9513379578 -0.0028369677742
          -0.0007915524542 1.9514560836 -0.0025373415269 -0.0010299324903 1.9516500221 -0.00252853598
          -0.00053932727893 1.9518060142 -0.0024258111843 -0.00041213728302 1.951915072 -0.0025829640125
          -0.00023157997616 1.9516844034 -0.0028430788157 4.7482497704e-06 1.9515274305 -0.0025988163949
          -0.00055471179544 1.951452799 -0.0029259078263 -0.00069137370627 1.9514061011 -0.0029526764104
          -0.001274049292 1.9513667822 -0.0026010056281 -0.0010357095374 1.9514091847 -0.0028408361378
          -0.00085345349519 1.9515287486 -0.0025790400936 -0.00069314006891 1.951299148 -0.0023929759553
          -0.00051335132345 1.9526256258 -0.0016311698482 -0.00014022573466 1.9516463326 -0.0031792757162
          -2.6209586953e-05 1.9516113971 -0.0029056190481 0.00024267391677 1.9514887612 -0.0028457971215
          0.00048412525416 1.9511620775 -0.0027319606397 -0.0016137791235 1.9511126739 -0.00276830484
          -0.0013849106333 1.9513280455 -0.0028513125859 -0.0011250037085 1.9513406881 -0.0028933963129
          -0.00099941798051 1.9512582432 -0.0031604786213 -0.00057749410177 1.9521031547 -0.0015803910705
          0.0014398248426 1.9548945808 -0.0017561421697 9.7566380698e-05 1.9518905144 -0.0026268973552
          0.00033620879208 1.9510445034 -0.0031658450228 0.00042056200332 1.9510581264 -0.0029207666235
          -0.00055715857894 1.9527348401 -0.00206345583 -0.00044319543967 1.9527131859 -0.002092956914
          -0.0014474070468 1.9508966623 -0.002943260317 -0.0013539681692 1.9507721676 -0.0031765611322
          -0.0010812802999 1.9514851083 -0.0026211782617 -0.0024425543188 1.9544694702 -0.0016702497952
          0.0018863467158 1.9545473983 -0.0025999938248 0.0034871566099 1.9539785901 -0.003064013906
          0.00067921133321 1.9509952182 -0.0038344566181 -6.3048222988e-05 1.9516939066 -0.0035040082672
          -0.0017931489357 1.9539695971 -0.0033237152056 0.00091554110057 1.9539948871 -0.003301944474
          -0.00086382169025 1.9515135315 -0.0034898942989 -0.0015994939678 1.9506333085 -0.0038440749501
          -0.0044181744622 1.9535033035 -0.0030353489003 -0.0030367370138 1.9542852031 -0.0024635514534
          -0.00073309591315 1.9513834357 -0.0015505967545 -0.00034715050977 1.9511967245 -0.0019202199228
          -0.00069680988205 1.9513308507 -0.0016905297316 -0.00092570548277 1.9517151796 -0.0022152666931
          -0.00095060795397 1.9518199964 -0.0024021756971 -0.00096769611533 1.95175135 -0.002449224106
          -0.00099997626158 1.9515448099 -0.0022049896359 -0.0012381635536 1.9510522045 -0.0016862916858
          -0.0016095500131 1.9508066957 -0.0019293872596 -0.0012719931536 1.9507992062 -0.0015514777989
          -0.00057389199248 1.951279068 -0.0021280305779 -0.00072986651202 1.951694561 -0.0023657360688
          -0.0010177377309 1.9520978622 -0.0026125629438 -0.00089330743616 1.9517891784 -0.0025167366354
          -0.00090265785164 1.9516640524 -0.0024659070998 -0.0009113555507 1.9516031673 -0.0024719902957
          -0.00093101990302 1.9516240347 -0.002523142989 -0.00080251949888 1.9518253058 -0.0026186932934
          -0.0010943698044 1.9512977891 -0.0023633035929 -0.001267152475 1.9507616562 -0.002139877805
          -0.00079311953982 1.9518861713 -0.0023757980493 -0.00084729329926 1.9518179713 -0.0025269412342
          -0.00081427473762 1.9517172955 -0.0026345526025 -0.00087530796067 1.9515480473 -0.002535972978
          -0.00086710525037 1.9514485773 -0.0025308136786 -0.00086473864468 1.9514060711 -0.0025222660436
          -0.00083835196428 1.9513846553 -0.00253599783 -0.0008953688289 1.9514379273 -0.0026350524547
          -0.00086536676591 1.9514216287 -0.0025258555388 -0.00093709177036 1.9513606454 -0.0023741616722
          -0.00067880488856 1.9520578246 -0.0023405418316 -0.00058107576817 1.9519554101 -0.0026370843483
          -0.0007319176693 1.9517468299 -0.0025942457234 -0.00078828118684 1.9515644213 -0.0025829978935
          -0.00082171059971 1.951374182 -0.0026352738354 -0.00076274452096 1.9513074353 -0.0026382246021
          -0.00081091607561 1.9513934648 -0.0025819774281 -0.0008673181718 1.9514693664 -0.0025950507904
          -0.001018113816 1.9515650492 -0.0026363944747 -0.00093298283099 1.9515549734 -0.0023465636533
          -0.00042511905626 1.9520754135 -0.0025460466716 -0.00050030548297 1.9519741631 -0.0025645377263
          -0.00067812548418 1.9516648469 -0.0026283139769 -0.00064322926712 1.9515172583 -0.0026674056714
          -0.00075763581158 1.9513421897 -0.0026980174536 -0.00067683227968 1.951311032 -0.0026990256562
          -0.00084323971451 1.9513564883 -0.0026678159837 -0.0008133280562 1.951389819 -0.0026277630939
          -0.00098510195251 1.9515825398 -0.0025574630259 -0.0010657321332 1.9515851969 -0.0025434996808
          -0.00043693813776 1.9522309701 -0.0026316651931 -0.00028636864615 1.9518218616 -0.0028876714748
          -0.00050861992342 1.9516700056 -0.0027816037242 -0.0006278208423 1.9514054735 -0.002829280614
          -0.0011125743945 1.951191214 -0.003188970544 -0.00027205111767 1.9511376638 -0.003186428838
          -0.00075530888813 1.9512509969 -0.0028224856878 -0.00087025648159 1.9513961597 -0.0027745508939
          -0.0010870159698 1.951430093 -0.0028810935021 -0.00093832049703 1.9517189524 -0.0026288724344
          -0.00036176841769 1.9521746711 -0.0024134844109 0.0001059924819 1.9519370243 -0.0029218335324
          -0.00022325000654 1.9517069644 -0.0029495362548 -0.00056064026828 1.9514319174 -0.0029923688667
          -0.00028628995586 1.9513014711 -0.0027255279733 -0.0009817054641 1.9512498199 -0.0027288088121
          -0.00071627557026 1.9512703937 -0.0029916365336 -0.001049974972 1.951429709 -0.0029488525619
          -0.0013746109778 1.9515400853 -0.0029213550954 -0.00090474271647 1.9516667509 -0.002404578803
          -6.6101253718e-05 1.9521047315 -0.002835869626 -0.00035487321882 1.951675497 -0.0026864427574
          0.00016022504681 1.9517117333 -0.0027895562912 0.00035416989452 1.9514128606 -0.0027210540298
          0.00081715789818 1.9510285397 -0.0024212289149 -0.0019686193451 1.9509776551 -0.0024279516851
          -0.0015182954605 1.9512471324 -0.0027250441808 -0.0013339883157 1.9514324272 -0.0027942545489
          -0.00081688983622 1.9512813459 -0.0026859417021 -0.0010782733078 1.9515827279 -0.0028193232267
          0.00074381139276 1.9534384662 -0.0025365431851 0.00030288297338 1.9520488353 -0.0031903579788
          6.8620168818e-06 1.9519150565 -0.0031380104676 0.0011026802813 1.9514239286 -0.0031515123075
          0.00086675591995 1.951821645 -0.0025368858044 -0.0019223512603 1.9517553012 -0.002559472405
          -0.0021372556019 1.9512726027 -0.0031470901701 -0.0010554679102 1.9516555339 -0.0031098341139
          -0.0013455638957 1.9516530066 -0.0031780679555 -0.0017523729437 1.9529132362 -0.0025312593184
          0.0059718635156 1.9565370615 -0.0012649919558 0.0018399281036 1.9509376373 -0.0028985170389
          -0.00048560037005 1.9499189772 -0.002975198272 0.0016379274819 1.949443041 -0.0030540996988
          -0.0053414341654 1.9548368624 -0.0017439079435 0.0044230849079 1.9548201481 -0.0017520237678
          -0.0026036651995 1.9493026093 -0.0030330802778 -0.00041860489552 1.9496952717 -0.0028755402175
          -0.0026319933628 1.9505019887 -0.0028196917361 -0.0069253507099 1.9561539921 -0.0012164288036
          -0.00055810980107 1.9519096864 -0.0020522674504 -0.00054964901245 1.9517649103 -0.002027192022
          -0.00097913174434 1.9520540385 -0.0022566905957 -0.0010672209206 1.9520420517 -0.0023710315721
          -0.00094190495612 1.9518808228 -0.0022949255091 -0.00094830920941 1.9517891305 -0.0023171435357
          -0.00085967629005 1.951883087 -0.0023761587459 -0.00095979060034 1.9517723696 -0.0022562644744
          -0.0013867498264 1.9513757083 -0.0020223703671 -0.0014320762786 1.9513478024 -0.0020591224104
          -0.00069273940979 1.9518250788 -0.0022033944914 -0.00099240367423 1.9522390949 -0.0023803474928
          -0.00087134786615 1.9519202465 -0.0023704326616 -0.00092806562492 1.9517723644 -0.0023882540778
          -0.00090812295669 1.951716188 -0.0023996097428 -0.00087898034012 1.9516471303 -0.0024141837294
          -0.00089337499288 1.9516059927 -0.0023894137938 -0.00095172222808 1.9516410551 -0.0023721126272
          -0.00083992172753 1.9518355033 -0.0023803173347 -0.0011362087509 1.9513087757 -0.0022022401123
          -0.00091205728912 1.9521464055 -0.0023753525988 -0.00069352258453 1.9519182399 -0.002497962127
          -0.00079107588929 1.9517407298 -0.0024735260327 -0.00081730634665 1.9516854724 -0.002437768216
          -0.00085975264381 1.9515974205 -0.002424630649 -0.00084677277211 1.9515375903 -0.0024346220234
          -0.00089444702571 1.9515252609 -0.0024347325921 -0.00091792436857 1.9514660392 -0.0024705241693
          -0.0010175955893 1.9515240376 -0.0024948475717 -0.00082115241726 1.9516190622 -0.0023735756853
          -0.00055538598853 1.9521770185 -0.0024455679363 -0.00065909601755 1.9520285762 -0.0025277500277
          -0.00070915847963 1.9518545824 -0.0025439735303 -0.000799159843 1.9516761758 -0.0025870822161
          -0.00081089458636 1.9515470622 -0.0025415840939 -0.00079510660619 1.9514962527 -0.0025361400892
          -0.00080117720694 1.9515120312 -0.0025844310911 -0.00088816244511 1.9515796545 -0.0025417566649
          -0.00093498724299 1.9516394928 -0.0025244383314 -0.0010386601274 1.9516846725 -0.0024407326467