<?xml version="1.0"?>
<VTKFile type="UnstructuredGrid" version="0.1" byte_order="LittleEndian" compressor="vtkZLibDataCompressor">
  <UnstructuredGrid>
    <FieldData>
      <DataArray type="Float64" Name="TIME" NumberOfTuples="1" format="ascii" RangeMin="0.28655714755" RangeMax="0.28655714755">
        0.28655714755
      </DataArray>
    </FieldData>
    <Piece NumberOfPoints="1000" NumberOfCells="0">
      <PointData>
        <DataArray type="Float64" Name="Damage" format="ascii" RangeMin="0" RangeMax="0.49719101124">
          0 0 0 0 0 0
          0 0 0 0 0 0.027932960894
          0 0 0 0 0 0
          0.027932960894 0 0 0.055084745763 0.071428571429 0.040345821326
          0.014164305949 0.012987012987 0.040345821326 0.071428571429 0.055084745763 0
          0 0.067669172932 0.11239193084 0.1074168798 0.037688442211 0.034562211982
          0.1074168798 0.11239193084 0.067669172932 0 0 0.074349442379
          0.16147308782 0.16834170854 0.12376237624 0.11286681716 0.16834170854 0.16147308782
          0.074349442379 0 0 0.084459459459 0.2 0.25806451613
          0.33860045147 0.39211618257 0.25806451613 0.2 0.084459459459 0
          0 0.093984962406 0.25360230548 0.36061381074 0.41959798995 0.46774193548
          0.36061381074 0.25360230548 0.093984962406 0 0 0.10593220339
          0.31493506494 0.40057636888 0.4447592068 0.49090909091 0.40057636888 0.31493506494
          0.10593220339 0 0 0.16759776536 0.3686440678 0.43984962406
          0.44609665428 0.49662162162 0.43984962406 0.3686440678 0.16759776536 0
          0 0.1677852349 0.36734693878 0.43891402715 0.44642857143 0.49593495935
          0.43891402715 0.36734693878 0.1677852349 0 0 0
          0 0 0 0 0 0
          0 0 0 0.027906976744 0 0
          0 0 0 0 0.027906976744 0
          0 0.056338028169 0.072776280323 0.040669856459 0.014117647059 0.012931034483
          0.040669856459 0.072776280323 0.056338028169 0 0 0.06875
          0.11483253589 0.10828025478 0.0375782881 0.034416826004 0.10828025478 0.11483253589
          0.06875 0 0 0.074303405573 0.16235294118 0.16910229645
          0.12371134021 0.11257035647 0.16910229645 0.16235294118 0.074303405573 0
          0 0.084269662921 0.20043103448 0.25812619503 0.33771106942 0.39242685026
          0.25812619503 0.20043103448 0.084269662921 0 0 0.09375
          0.25358851675 0.36093418259 0.41962421712 0.46845124283 0.36093418259 0.25358851675
          0.09375 0 0 0.10563380282 0.3153638814 0.4019138756
          0.44470588235 0.49137931034 0.4019138756 0.3153638814 0.10563380282 0
          0 0.16744186047 0.36971830986 0.440625 0.44582043344 0.49719101124
          0.440625 0.36971830986 0.16744186047 0 0 0.16759776536
          0.3686440678 0.43984962406 0.44609665428 0.49662162162 0.43984962406 0.3686440678
          0.16759776536 0 0 0 0 0
          0 0 0 0 0 0
          0 0.024647887324 0 0 0 0
          0 0 0.024647887324 0 0 0.051212938005
          0.06875 0.038817005545 0.012635379061 0.011666666667 0.038817005545 0.06875
          0.051212938005 0 0 0.064593301435 0.10905730129 0.10491803279
          0.036858974359 0.034023668639 0.10491803279 0.10905730129 0.064593301435 0
          0 0.070588235294 0.15523465704 0.16506410256 0.12283464567 0.11271676301
          0.16506410256 0.15523465704 0.070588235294 0 0 0.081896551724
          0.19333333333 0.25443786982 0.33959537572 0.38985313752 0.25443786982 0.19333333333
          0.081896551724 0 0 0.093301435407 0.24768946396 0.35573770492
          0.41987179487 0.46449704142 0.35573770492 0.24768946396 0.093301435407 0
          0 0.10781671159 0.30833333333 0.39556377079 0.4440433213 0.48666666667
          0.39556377079 0.30833333333 0.10781671159 0 0 0.16197183099
          0.35579514825 0.43062200957 0.44470588235 0.49137931034 0.43062200957 0.35579514825
          0.16197183099 0 0 0.16101694915 0.3538961039 0.42939481268
          0.4447592068 0.49090909091 0.42939481268 0.3538961039 0.16101694915 0
          0 0 0 0 0 0
          0 0 0 0 0 0.025
          0 0 0 0 0 0
          0.025 0 0 0.05023923445 0.068391866913 0.039344262295
          0.012820512821 0.011834319527 0.039344262295 0.068391866913 0.05023923445 0
          0 0.063694267516 0.10819672131 0.10465116279 0.036984352774 0.034120734908
          0.10465116279 0.10819672131 0.063694267516 0 0 0.070981210856
          0.15544871795 0.16500711238 0.12290502793 0.11282051282 0.16500711238 0.15544871795
          0.070981210856 0 0 0.082217973231 0.19378698225 0.25459317585
          0.33974358974 0.38981042654 0.25459317585 0.19378698225 0.082217973231 0
          0 0.093418259023 0.24918032787 0.35610465116 0.41963015647 0.46456692913
          0.35610465116 0.24918032787 0.093418259023 0 0 0.10765550239
          0.30868761553 0.39508196721 0.44391025641 0.48668639053 0.39508196721 0.30868761553
          0.10765550239 0 0 0.1625 0.35645933014 0.43099787686
          0.44467640919 0.4913957935 0.43099787686 0.35645933014 0.1625 0
          0 0.16165413534 0.35446685879 0.42966751918 0.44472361809 0.49078341014
          0.42966751918 0.35446685879 0.16165413534 0 0 0
          0 0 0 0 0 0
          0 0 0 0.02786377709 0 0
          0 0 0 0 0.02786377709 0
          0 0.054117647059 0.070397111913 0.040064102564 0.014173228346 0.013005780347
          0.040064102564 0.070397111913 0.054117647059 0 0 0.066805845511
          0.11057692308 0.106685633 0.037709497207 0.034615384615 0.106685633 0.11057692308
          0.066805845511 0 0 0.074226804124 0.16062992126 0.16759776536
          0.12362637363 0.11292346299 0.16759776536 0.16062992126 0.074226804124 0
          0 0.084427767355 0.19942196532 0.25769230769 0.33877038896 0.39145496536
          0.25769230769 0.19942196532 0.084427767355 0 0 0.093945720251
          0.25320512821 0.35988620199 0.41899441341 0.46666666667 0.35988620199 0.25320512821
          0.093945720251 0 0 0.10588235294 0.31407942238 0.39903846154
          0.44409448819 0.48988439306 0.39903846154 0.31407942238 0.10588235294 0
          0 0.16718266254 0.36705882353 0.43841336117 0.44536082474 0.49530956848
          0.43841336117 0.36705882353 0.16718266254 0 0 0.16728624535
          0.36543909348 0.43718592965 0.44554455446 0.49435665914 0.43718592965 0.36543909348
          0.16728624535 0 0 0 0 0
          0 0 0 0 0 0
          0 0.025280898876 0 0 0 0
          0 0 0.025280898876 0 0 0.049568965517
          0.066666666667 0.038461538462 0.013005780347 0.012016021362 0.038461538462 0.066666666667
          0.049568965517 0 0 0.06309751434 0.1050295858 0.10367454068
          0.037179487179 0.034360189573 0.10367454068 0.1050295858 0.06309751434 0
          0 0.071294559099 0.15462427746 0.1641025641 0.12296110414 0.11316397229
          0.1641025641 0.15462427746 0.071294559099 0 0 0.082616179002
          0.19359145527 0.25473933649 0.34064665127 0.38930481283 0.25473933649 0.19359145527
          0.082616179002 0 0 0.093690248566 0.24852071006 0.35564304462
          0.41923076923 0.46327014218 0.35564304462 0.24852071006 0.093690248566 0
          0 0.10775862069 0.30833333333 0.39349112426 0.4436416185 0.48598130841
          0.39349112426 0.30833333333 0.10775862069 0 0 0.16292134831
          0.35560344828 0.43021032505 0.44465290807 0.49053356282 0.43021032505 0.35560344828
          0.16292134831 0 0 0.16216216216 0.35324675325 0.42857142857
          0.44469525959 0.48962655602 0.42857142857 0.35324675325 0.16216216216 0
          0 0 0 0 0 0
          0 0 0 0 0 0.025
          0 0 0 0 0 0
          0.025 0 0 0.05023923445 0.068391866913 0.039344262295
          0.012820512821 0.011834319527 0.039344262295 0.068391866913 0.05023923445 0
          0 0.063694267516 0.10819672131 0.10465116279 0.036984352774 0.034120734908
          0.10465116279 0.10819672131 0.063694267516 0 0 0.070981210856
          0.15544871795 0.16500711238 0.12290502793 0.11282051282 0.16500711238 0.15544871795
          0.070981210856 0 0 0.082217973231 0.19378698225 0.25459317585
          0.33974358974 0.38981042654 0.25459317585 0.19378698225 0.082217973231 0
          0 0.093418259023 0.24918032787 0.35610465116 0.41963015647 0.46456692913
          0.35610465116 0.24918032787 0.093418259023 0 0 0.10765550239
          0.30868761553 0.39508196721 0.44391025641 0.48668639053 0.39508196721 0.30868761553
          0.10765550239 0 0 0.1625 0.35645933014 0.43099787686
          0.44467640919 0.4913957935 0.43099787686 0.35645933014 0.1625 0
          0 0.16165413534 0.35446685879 0.42966751918 0.44472361809 0.49078341014
          0.42966751918 0.35446685879 0.16165413534 0 0 0
          0 0 0 0 0 0
          0 0 0 0.024647887324 0 0
          0 0 0 0 0.024647887324 0
          0 0.051212938005 0.06875 0.038817005545 0.012635379061 0.011666666667
          0.038817005545 0.06875 0.051212938005 0 0 0.064593301435
          0.10905730129 0.10491803279 0.036858974359 0.034023668639 0.10491803279 0.10905730129
          0.064593301435 0 0 0.070588235294 0.15523465704 0.16506410256
          0.12283464567 0.11271676301 0.16506410256 0.15523465704 0.070588235294 0
          0 0.081896551724 0.19333333333 0.25443786982 0.33959537572 0.38985313752
          0.25443786982 0.19333333333 0.081896551724 0 0 0.093301435407
          0.24768946396 0.35573770492 0.41987179487 0.46449704142 0.35573770492 0.24768946396
          0.093301435407 0 0 0.10781671159 0.30833333333 0.39556377079
          0.4440433213 0.48666666667 0.39556377079 0.30833333333 0.10781671159 0
          0 0.16197183099 0.35579514825 0.43062200957 0.44470588235 0.49137931034
          0.43062200957 0.35579514825 0.16197183099 0 0 0.16101694915
          0.3538961039 0.42939481268 0.4447592068 0.49090909091 0.42939481268 0.3538961039
          0.16101694915 0 0 0 0 0
          0 0 0 0 0 0
          0 0.027906976744 0 0 0 0
          0 0 0.027906976744 0 0 0.056338028169
          0.072776280323 0.040669856459 0.014117647059 0.012931034483 0.040669856459 0.072776280323
          0.056338028169 0 0 0.06875 0.11483253589 0.10828025478
          0.0375782881 0.034416826004 0.10828025478 0.11483253589 0.06875 0
          0 0.074303405573 0.16235294118 0.16910229645 0.12371134021 0.11257035647
          0.16910229645 0.16235294118 0.074303405573 0 0 0.084269662921
          0.20043103448 0.25812619503 0.33771106942 0.39242685026 0.25812619503 0.20043103448
          0.084269662921 0 0 0.09375 0.25358851675 0.36093418259
          0.41962421712 0.46845124283 0.36093418259 0.25358851675 0.09375 0
          0 0.10563380282 0.3153638814 0.4019138756 0.44470588235 0.49137931034
          0.4019138756 0.3153638814 0.10563380282 0 0 0.16744186047
          0.36971830986 0.440625 0.44582043344 0.49719101124 0.440625 0.36971830986
          0.16744186047 0 0 0.16759776536 0.3686440678 0.43984962406
          0.44609665428 0.49662162162 0.43984962406 0.3686440678 0.16759776536 0
          0 0 0 0 0 0
          0 0 0 0 0 0.027932960894
          0 0 0 0 0 0
          0.027932960894 0 0 0.055084745763 0.071428571429 0.040345821326
          0.014164305949 0.012987012987 0.040345821326 0.071428571429 0.055084745763 0
          0 0.067669172932 0.11239193084 0.1074168798 0.037688442211 0.034562211982
          0.1074168798 0.11239193084 0.067669172932 0 0 0.074349442379
          0.16147308782 0.16834170854 0.12376237624 0.11286681716 0.16834170854 0.16147308782
          0.074349442379 0 0 0.084459459459 0.2 0.25806451613
          0.33860045147 0.39211618257 0.25806451613 0.2 0.084459459459 0
          0 0.093984962406 0.25360230548 0.36061381074 0.41959798995 0.46774193548
          0.36061381074 0.25360230548 0.093984962406 0 0 0.10593220339
          0.31493506494 0.40057636888 0.4447592068 0.49090909091 0.40057636888 0.31493506494
          0.10593220339 0 0 0.16759776536 0.3686440678 0.43984962406
          0.44609665428 0.49662162162 0.43984962406 0.3686440678 0.16759776536 0
          0 0.1677852349 0.36734693878 0.43891402715 0.44642857143 0.49593495935
          0.43891402715 0.36734693878 0.1677852349 0
        </DataArray>
        <DataArray type="Float64" Name="Displacement" NumberOfComponents="3" format="ascii" RangeMin="1.2446181062" RangeMax="1.2603385564">
          -0.010517624299 1.2532225875 -0.024008381469 -0.0082633760203 1.2485684 -0.019519000219
          -0.0099751617524 1.2531705479 -0.02456877893 -0.0089092490587 1.2518100688 -0.02354324183
          -0.0090751275932 1.2507839287 -0.022992777187 -0.009071496143 1.2498871471 -0.022228169896
          -0.0090359856062 1.2503763013 -0.023527023938 -0.0079320765347 1.250930517 -0.024534980231
          -0.0096508800041 1.2452763467 -0.019601115068 -0.0074654719052 1.2493272094 -0.023754177904
          -0.0089602218869 1.2513135736 -0.021799398952 -0.0099757485746 1.2521744206 -0.023220695857
          -0.0089503479934 1.2505594433 -0.022632348103 -0.0087612357239 1.250088458 -0.023090862513
          -0.0084951254208 1.249157541 -0.022848610907 -0.0084579221646 1.2488922406 -0.022660497648
          -0.0084453373782 1.248800617 -0.023067138758 -0.0080930311261 1.2484266247 -0.022627466517
          -0.0071578872845 1.2489536848 -0.02308757742 -0.0080088857499 1.2473162775 -0.021768124081
          -0.0087241866994 1.251756279 -0.023109205598 -0.0077855880304 1.2507422683 -0.023917877941
          -0.0086715877887 1.2510440796 -0.023653218675 -0.0084307358256 1.2497050346 -0.023297216748
          -0.0081009390248 1.2486237605 -0.022983720862 -0.0079989727924 1.2487186503 -0.023675818373
          -0.0075954450487 1.2483969905 -0.023199224955 -0.0074583327181 1.2487776354 -0.023608377666
          -0.0083956855792 1.2475924457 -0.023868125964 -0.0075511026756 1.2477800453 -0.023134257912
          -0.0083121684424 1.2513047741 -0.023349118727 -0.0073441916707 1.2519377316 -0.023571774415
          -0.0078619437317 1.2510049328 -0.024382816635 -0.0079390155105 1.2499712438 -0.024097230389
          -0.0075064958874 1.2488010683 -0.023749980712 -0.0073930465792 1.2487609178 -0.023811329777
          -0.0073199005907 1.2486697085 -0.024075637703 -0.0073540053363 1.2488321927 -0.024386481769
          -0.0079776880798 1.2489136026 -0.023597799239 -0.0069504903371 1.24732495 -0.023290021481
          -0.0086267933035 1.2525587847 -0.023254581454 -0.0069404789184 1.250994407 -0.024763754275
          -0.0072658700641 1.2503684018 -0.02456024892 -0.0069175495226 1.2500684632 -0.02468623315
          -0.0069479885565 1.2498107816 -0.024391286548 -0.0077022418755 1.2495746615 -0.024110708328
          -0.0072886078683 1.2487063762 -0.024658588493 -0.0070718299391 1.2481927585 -0.024515144217
          -0.0075347125026 1.2477583307 -0.024767079777 -0.0057777378897 1.2485812859 -0.023245058247
          -0.007463017316 1.2514405348 -0.024229019516 -0.0059927146966 1.2509258143 -0.025211171251
          -0.0067326672773 1.2507402444 -0.024740702741 -0.0068569196735 1.2500486303 -0.024984700978
          -0.0044330180312 1.2491046956 -0.023713864713 -0.0090487962334 1.2489574064 -0.023684662962
          -0.0066387736344 1.2486102952 -0.024941829335 -0.0067717604617 1.2485816995 -0.024663663412
          -0.00757902413 1.2477706243 -0.025173398548 -0.0060704222197 1.2474539703 -0.024172136318
          -0.0055220570973 1.251668744 -0.026380126189 -0.0071069730703 1.2512879961 -0.024612695837
          -0.0062431560202 1.2508300564 -0.025886377004 -0.0069706785407 1.2497991215 -0.02576326549
          -0.0040824779642 1.2483141438 -0.024621880526 -0.0086263669282 1.2478996227 -0.024540580485
          -0.0056320949535 1.2485000078 -0.025871362215 -0.0063409710776 1.2485683813 -0.025847778205
          -0.0054944766803 1.2481864944 -0.024554849984 -0.0071550527143 1.2476627847 -0.02642677775
          -0.0057147057289 1.250385183 -0.02797797573 -0.0074298122604 1.2512313833 -0.025135384623
          -0.0054238702119 1.2504551676 -0.026784073613 -0.0043962318827 1.2497003439 -0.026727451107
          -0.0026699065056 1.249366248 -0.024768665505 -0.009089137324 1.2489919739 -0.024808713691
          -0.0073226232354 1.2484043483 -0.02667648575 -0.0063700217349 1.2482503604 -0.026747369773
          -0.0043961288038 1.2480385336 -0.025167172695 -0.0058491073637 1.2463876127 -0.027891774653
          -0.0079633433701 1.2530177092 -0.024991031746 -0.0058446851635 1.2520482489 -0.027461402
          -0.0042522663453 1.2484470088 -0.029146897329 -0.0060088940893 1.2499606873 -0.029438544204
          -0.0050023167046 1.2500663959 -0.027196955191 -0.0055524041216 1.2495499887 -0.027309439578
          -0.0047091338649 1.2484883337 -0.029305584057 -0.0064596883609 1.2460854533 -0.02907263729
          -0.0048958605865 1.2488161414 -0.027366651702 -0.0026099823066 1.2490292967 -0.024658846217
          -0.0079487787997 1.2486876889 -0.029321959894 -0.0010005584623 1.2494140265 -0.031093641554
          -0.0015549024812 1.2526551947 -0.027974175911 -0.004585776208 1.254490836 -0.024246471552
          0.0017419610041 1.2479680222 -0.027355217268 -0.011462428888 1.2479230757 -0.027099867222
          -0.0051806774848 1.2532617321 -0.024074785263 -0.0084086140898 1.2503999662 -0.027971003567
          -0.0090660608031 1.2461679301 -0.031214062768 -0.002018104092 1.2442629729 -0.029661620909
          -0.0094586470596 1.2528258228 -0.022281593026 -0.011182496617 1.2513939596 -0.021047417638
          -0.0094898458343 1.2515264774 -0.022707448366 -0.0092855484323 1.2508879518 -0.022760334867
          -0.008979356341 1.2500372678 -0.022728885756 -0.00883117556 1.2498636585 -0.022674731079
          -0.0087509922753 1.249582289 -0.022780263228 -0.0084610257519 1.2493630958 -0.022816031811
          -0.0067364590568 1.2482100815 -0.020970800859 -0.0086056149985 1.2488076533 -0.022292000892
          -0.0098782057916 1.2524568331 -0.022088961998 -0.0089099765312 1.2518538939 -0.022989517766
          -0.0091526697634 1.2510124364 -0.022490915842 -0.0085089562579 1.2499848528 -0.022649138682
          -0.0086280371927 1.2501271571 -0.022975450051 -0.0084450358551 1.2491756761 -0.022474413506
          -0.0084804242595 1.2487696178 -0.02267356411 -0.007952928223 1.2487685451 -0.022520240109
          -0.0080931548094 1.2487174854 -0.022925543652 -0.0072059613859 1.2484839351 -0.022097408053
          -0.0094697409596 1.2524181343 -0.02292588096 -0.0081770859075 1.2515149255 -0.023703164349
          -0.0084094234533 1.2508719244 -0.023172123598 -0.008174533442 1.250093388 -0.023255691041
          -0.0081720576463 1.2495981521 -0.023197701638 -0.0079987895333 1.249223091 -0.023307731059
          -0.0079557661411 1.2487297299 -0.02318191725 -0.0077424309802 1.2486481777 -0.023108084947
          -0.0079591536471 1.2483858062 -0.023665215437 -0.006707102057 1.2484131283 -0.022914946281
          -0.0078613714401 1.2520835758 -0.024214327418 -0.0079330163653 1.2517271482 -0.023907229328
          -0.0075145384311 1.2508807314 -0.024315265193 -0.0075024023228 1.2504829294 -0.024534232011
          -0.0076789595627 1.249713819 -0.024207277123 -0.0076115623538 1.2492346332 -0.024195482031
          -0.00779975421 1.2491443608 -0.024506213278 -0.0077004535815 1.2486120705 -0.024208997827
          -0.0073224819095 1.2485935156 -0.02384381149 -0.0074677504619 1.2480532605 -0.024116291842
          -0.0072354714602 1.2520641679 -0.024869064075 -0.0074905467437 1.2516821707 -0.024578748859
          -0.0071953064777 1.2509468351 -0.024897743221 -0.0072357911618 1.2503640319 -0.02453057294
          -0.0072243008659 1.2497051734 -0.024557011356 -0.0071344722435 1.2491153826 -0.024708639853
          -0.0071833988596 1.2490452612 -0.024516199024 -0.0071336122394 1.2486677733 -0.024826277252
          -0.006844038809 1.2485571685 -0.024554029518 -0.0071364339347 1.2479342098 -0.02478289916
          -0.0062044503497 1.2524080271 -0.025753795249 -0.0067405356114 1.2516366911 -0.025120856977
          -0.006034346059 1.2510888477 -0.025728929099 -0.0061596147255 1.2505125954 -0.025180911153
          -0.0062124636731 1.2498473436 -0.025304224231 -0.0072238997044 1.2493051377 -0.025243194033
          -0.0072834939269 1.2491998444 -0.025072151572 -0.0074493252442 1.2488447706 -0.025738768983
          -0.006683799377 1.2484621069 -0.025087257193 -0.0072614061081 1.248403423 -0.025678589145
          -0.0065057182794 1.2522719837 -0.025750151893 -0.0059769241864 1.2516448831 -0.025777767809
          -0.006395003861 1.2511081976 -0.025815814931 -0.0059219617352 1.2503515954 -0.026294627644
          -0.0061130926429 1.2497467396 -0.026338816539 -0.0065120966772 1.2491746393 -0.0263635604
          -0.0065878182684 1.2490022207 -0.026295961533 -0.0061606309444 1.2488693428 -0.025798189426
          -0.0065843544002 1.2485159328 -0.025726639793 -0.0061061962181 1.2482305502 -0.025731061553
          -0.0055453753623 1.2529966864 -0.026307944005 -0.0057519489012 1.2515746257 -0.026813457097
          -0.0056183503431 1.2517587212 -0.026129774498 -0.0053508645771 1.2503250061 -0.026467356208
          -0.0049420035325 1.2498944146 -0.026502493914 -0.0068542870928 1.2493779525 -0.026499683952
          -0.0063254158936 1.2489401286 -0.026451953248 -0.006180617444 1.2495173021 -0.026121476728
          -0.0059331265099 1.2484357666 -0.026762026154 -0.0061424852065 1.2489427257 -0.026226422656
          -0.0072592624696 1.2515491655 -0.024643187295 -0.0047103044027 1.2521029315 -0.027161831009
          -0.0045025286216 1.2519418204 -0.027254604211 -0.0051050578339 1.2505673639 -0.02740688398
          -0.0061352012927 1.2502839829 -0.028420883161 -0.0046773078733 1.2498192963 -0.028423121691
          -0.0057039164904 1.2492178798 -0.027382209947 -0.0062710622167 1.2497305257 -0.027216955739
          -0.0060632138778 1.2490580091 -0.027080618215 -0.0034952473829 1.2474650718 -0.024618014033
          -0.0010982261485 1.2511043481 -0.029626494518 -0.0033675043573 1.2514861373 -0.026767099198
          -0.0019229830338 1.2511877847 -0.027593627038 -0.0043489219674 1.2496701603 -0.028493652486
          -0.0043206501592 1.2511683364 -0.026392931136 -0.0055894746689 1.2506147123 -0.026295797054
          -0.0056305786994 1.2483049274 -0.028541753956 -0.007907123161 1.2489533462 -0.027717122186
          -0.0065862292274 1.2485608984 -0.026723698936 -0.0088785630627 1.2472620556 -0.029662198519
          -0.0079998468725 1.2506403412 -0.021760901135 -0.010579936276 1.2532612814 -0.022377428153
          -0.0094120208604 1.2514665658 -0.021775499924 -0.0091998741363 1.2508843903 -0.022089060999
          -0.0091450179025 1.2508100859 -0.022575532374 -0.0087465995668 1.2500887075 -0.022333140295
          -0.0086505616994 1.2496104955 -0.022120483264 -0.0085571217941 1.2492209049 -0.021775963406
          -0.0072428627711 1.2501250472 -0.022351035254 -0.010147994926 1.246420426 -0.021734427207
          -0.009492595846 1.2535877848 -0.022871098555 -0.008964499029 1.2519930214 -0.022494083544
          -0.0086090982606 1.251003282 -0.022571216347 -0.0087346475124 1.2508810242 -0.0227847443
          -0.0085705128216 1.2501351124 -0.022725907691 -0.0085056416722 1.2496775388 -0.022656143722
          -0.0082954649017 1.2494943261 -0.022675250607 -0.0083997899917 1.2488176231 -0.022548969033
          -0.0080853754072 1.2488836083 -0.022474447502 -0.0074977022296 1.2496011653 -0.02280363404
          -0.0080568119364 1.2529333083 -0.023835404142 -0.0076473337274 1.2521016826 -0.023865210138
          -0.0081760403828 1.2514718179 -0.023503561793 -0.0081243233436 1.2509083208 -0.023522856896
          -0.0081263008024 1.2503594598 -0.023500262578 -0.0079658643282 1.2498885117 -0.023494580301
          -0.0080647201355 1.2495589241 -0.023495098468 -0.0080000690365 1.2492362438 -0.023500114047
          -0.0085039846529 1.2489535657 -0.023835372108 -0.00804087793 1.2488959802 -0.023790942139
          -0.0076049425065 1.2529122199 -0.024406354757 -0.0080663497551 1.2523360804 -0.024050539403
          -0.0076510324393 1.2515638826 -0.024226281504 -0.0077060831168 1.2508996656 -0.024199228743
          -0.0076198924837 1.250324543 -0.024150059306 -0.0075707641243 1.2498455276 -0.024232479166
          -0.0076019697371 1.2495355204 -0.024163031962 -0.0076266736171 1.2493197527 -0.024204271691
          -0.0071880020588 1.2491722773 -0.023991296429 -0.0076755331484 1.2488637134 -0.024317532336
          -0.0071329673841 1.2530694899 -0.024776074203 -0.0072063234354 1.2521838393 -0.024773628088
          -0.0072615287389 1.2515034609 -0.024786220071 -0.0072354937862 1.2508585894 -0.024785642366
          -0.0071867065222 1.2502841801 -0.024844013102 -0.0071910571933 1.2498055179 -0.024809038105
          -0.0071355035789 1.2495155791 -0.024765520348 -0.0070840685738 1.2492809569 -0.024746383526
          -0.0071480922982 1.249054538 -0.024736121987 -0.0072653041369 1.2490330159 -0.024732715279
          -0.0065439874177 1.2527684436 -0.025224379614 -0.0059286886954 1.2523855647 -0.025611046473
          -0.0064102521318 1.2515697254 -0.025499207032 -0.0064873387889 1.2510261296 -0.025483280687
          -0.0065712904759 1.2502720827 -0.025553550749 -0.0069394118692 1.2497990895 -0.025516885482
          -0.0069711984114 1.2496449215 -0.025435603816 -0.0070679195779 1.2493466525 -0.025465152264
          -0.0075497009531 1.2492694568 -0.025557861283 -0.0069594281243 1.2486821455 -0.025201937517
          -0.0051972019173 1.2533983659 -0.026324410916 -0.0046668232789 1.2526980098 -0.026331636981
          -0.0059759560031 1.2515722295 -0.026074060137 -0.0061880790262 1.2509558488 -0.025940554274
          -0.0064787603757 1.250315739 -0.026588968704 -0.0060426543221 1.24983237 -0.026636578718
          -0.0064242938471 1.2495838846 -0.025962867611 -0.0066006269049 1.2493632747 -0.026072461853
          -0.007853829103 1.2495828657 -0.026283391554 -0.0073985134772 1.2493860798 -0.026314299611
          -0.0053036726248 1.2530092962 -0.026232016456 -0.0044644388396 1.2527382546 -0.02670885191
          -0.0054053373939 1.251520932 -0.026770992123 -0.004967353936 1.2508739762 -0.026741290804
          -0.0049217036784 1.2504464075 -0.026567558113 -0.0067534082956 1.2498689642 -0.026644359179
          -0.0066764554623 1.2495025034 -0.026761691446 -0.0062310237948 1.2492759204 -0.026733665782
          -0.0071627715761 1.2496030473 -0.026690515544 -0.0063631068571 1.2489612593 -0.026177689227
          -0.0040454565916 1.2539933199 -0.027311469428 -0.0040528023259 1.2532239667 -0.026805350036
          -0.004740292137 1.251754938 -0.027265359165 -0.0039678831722 1.2508092605 -0.027451371987
          -0.0049619466759 1.2499937533 -0.028398193481 -0.0059351506431 1.249479211 -0.028416984912
          -0.0067870249226 1.2494562338 -0.027452069736 -0.0060148292733 1.2495084504 -0.027235969942
          -0.0067332071917 1.2501200606 -0.026714050242 -0.0067843173779 1.2499815268 -0.027236355806
          -0.0033266531759 1.253454646 -0.028621598918 -0.0016849824911 1.2526236619 -0.027898165211
          -0.0044556612737 1.2496971256 -0.029148925306 -0.002378233373 1.2492281959 -0.028998769336
          -0.0059800291144 1.2518884003 -0.029101320472 -0.0037005053242 1.2514818168 -0.029101042208
          -0.0074942768573 1.2478987672 -0.028984721358 -0.0054312095233 1.2474628609 -0.029050521703
          -0.008087853839 1.2495080393 -0.027841258107 -0.0067443903309 1.2495928807 -0.028569125729
          -0.0094207511137 1.2523421451 -0.022131903352 -0.01051917417 1.2541213815 -0.0224987086
          -0.0094189622937 1.2521175051 -0.022062831156 -0.009001542591 1.2514463119 -0.022040683249
          -0.009131290203 1.2511582166 -0.022396875749 -0.0090258576866 1.2506680835 -0.022287442961
          -0.0089955151483 1.2500270268 -0.021987826396 -0.0084798928518 1.2499394163 -0.022013543204
          -0.0073151299502 1.2510453745 -0.02246766106 -0.0085899983515 1.2482022687 -0.022073556414
          -0.009544954441 1.2550943644 -0.023435961343 -0.0090271260404 1.2530477038 -0.022957160967
          -0.0086970296665 1.252020482 -0.022810914127 -0.0085942654541 1.2514864004 -0.022856475297
          -0.0085923325911 1.2510006203 -0.022853023567 -0.0085461950219 1.2505200244 -0.02283026164
          -0.0084483273563 1.2501506376 -0.022866406415 -0.0083427159837 1.2497558435 -0.02277430976
          -0.0079330714748 1.2499375862 -0.022904888027 -0.0074205946359 1.2511727005 -0.02338338887
          -0.0087042086295 1.2539969625 -0.023558545802 -0.0083068902111 1.2529326841 -0.023649694694
          -0.0081382067049 1.2522533862 -0.02352341786 -0.0082310816805 1.2515483547 -0.023519785037
          -0.0081327856892 1.2510045417 -0.023553745641 -0.0080579613614 1.2505467228 -0.023598135257
          -0.0079624057671 1.2501977597 -0.023524086982 -0.0080043666556 1.2500099231 -0.02350527609
          -0.007827269241 1.2498155773 -0.023601902278 -0.0074515685173 1.2499990736 -0.023503878951
          -0.008155498006 1.2537778915 -0.023927147837 -0.0076641906993 1.2529759738 -0.02424415947
          -0.0076731129861 1.2521551953 -0.024280988076 -0.0076843091041 1.2515802516 -0.024134947086
          -0.0076476705729 1.2509376583 -0.02425903119 -0.00764042015 1.250386716 -0.024182289198
          -0.0075318499016 1.2502483039 -0.02410235198 -0.0075845442663 1.2499257442 -0.024240875291
          -0.0075980844576 1.2498408023 -0.024176536984 -0.0071356892867 1.2497669995 -0.023872517057
          -0.0072542349277 1.2537882334 -0.024813899618 -0.0071947240124 1.2529291386 -0.02477340245
          -0.0070992722006 1.252277553 -0.024852117092 -0.0071709491289 1.2515858155 -0.024867924256
          -0.0071498715605 1.2508543364 -0.024848761093 -0.0071704790277 1.2503911721 -0.024910528028
          -0.0072040820532 1.2502323513 -0.024791196857 -0.0072611275248 1.2500215219 -0.024812152267
          -0.0071700512894 1.2497757673 -0.024704466106 -0.0071418586504 1.2497700039 -0.024745593363