<?xml version="1.0"?>
<VTKFile type="UnstructuredGrid" version="0.1" byte_order="LittleEndian" compressor="vtkZLibDataCompressor">
  <UnstructuredGrid>
    <FieldData>
      <DataArray type="Float64" Name="TIME" NumberOfTuples="1" format="ascii" RangeMin="0.22909604701" RangeMax="0.22909604701">
        0.22909604701
      </DataArray>
    </FieldData>
    <Piece NumberOfPoints="1000" NumberOfCells="0">
      <PointData>
        <DataArray type="Float64" Name="Damage" format="ascii" RangeMin="0" RangeMax="0.49719101124">
          0 0 0 0 0 0
          0 0 0 0 0 0.027932960894
          0 0 0 0 0 0
          0.027932960894 0 0 0.055084745763 0.071428571429 0.040345821326
          0.014164305949 0.012987012987 0.040345821326 0.071428571429 0.055084745763 0
          0 0.067669172932 0.11239193084 0.1074168798 0.037688442211 0.034562211982
          0.1074168798 0.11239193084 0.067669172932 0 0 0.074349442379
          0.16147308782 0.16834170854 0.12376237624 0.11286681716 0.16834170854 0.16147308782
          0.074349442379 0 0 0.084459459459 0.2 0.25806451613
          0.33860045147 0.39211618257 0.25806451613 0.2 0.084459459459 0
          0 0.093984962406 0.25360230548 0.36061381074 0.41959798995 0.46774193548
          0.36061381074 0.25360230548 0.093984962406 0 0 0.10593220339
          0.31493506494 0.40057636888 0.4447592068 0.49090909091 0.40057636888 0.31493506494
          0.10593220339 0 0 0.16759776536 0.3686440678 0.43984962406
          0.44609665428 0.49662162162 0.43984962406 0.3686440678 0.16759776536 0
          0 0.1677852349 0.36734693878 0.43891402715 0.44642857143 0.49593495935
          0.43891402715 0.36734693878 0.1677852349 0 0 0
          0 0 0 0 0 0
          0 0 0 0.027906976744 0 0
          0 0 0 0 0.027906976744 0
          0 0.056338028169 0.072776280323 0.040669856459 0.014117647059 0.012931034483
          0.040669856459 0.072776280323 0.056338028169 0 0 0.06875
          0.11483253589 0.10828025478 0.0375782881 0.034416826004 0.10828025478 0.11483253589
          0.06875 0 0 0.074303405573 0.16235294118 0.16910229645
          0.12371134021 0.11257035647 0.16910229645 0.16235294118 0.074303405573 0
          0 0.084269662921 0.20043103448 0.25812619503 0.33771106942 0.39242685026
          0.25812619503 0.20043103448 0.084269662921 0 0 0.09375
          0.25358851675 0.36093418259 0.41962421712 0.46845124283 0.36093418259 0.25358851675
          0.09375 0 0 0.10563380282 0.3153638814 0.4019138756
          0.44470588235 0.49137931034 0.4019138756 0.3153638814 0.10563380282 0
          0 0.16744186047 0.36971830986 0.440625 0.44582043344 0.49719101124
          0.440625 0.36971830986 0.16744186047 0 0 0.16759776536
          0.3686440678 0.43984962406 0.44609665428 0.49662162162 0.43984962406 0.3686440678
          0.16759776536 0 0 0 0 0
          0 0 0 0 0 0
          0 0.024647887324 0 0 0 0
          0 0 0.024647887324 0 0 0.051212938005
          0.06875 0.038817005545 0.012635379061 0.011666666667 0.038817005545 0.06875
          0.051212938005 0 0 0.064593301435 0.10905730129 0.10491803279
          0.036858974359 0.034023668639 0.10491803279 0.10905730129 0.064593301435 0
          0 0.070588235294 0.15523465704 0.16506410256 0.12283464567 0.11271676301
          0.16506410256 0.15523465704 0.070588235294 0 0 0.081896551724
          0.19333333333 0.25443786982 0.33959537572 0.38985313752 0.25443786982 0.19333333333
          0.081896551724 0 0 0.093301435407 0.24768946396 0.35573770492
          0.41987179487 0.46449704142 0.35573770492 0.24768946396 0.093301435407 0
          0 0.10781671159 0.30833333333 0.39556377079 0.4440433213 0.48666666667
          0.39556377079 0.30833333333 0.10781671159 0 0 0.16197183099
          0.35579514825 0.43062200957 0.44470588235 0.49137931034 0.43062200957 0.35579514825
          0.16197183099 0 0 0.16101694915 0.3538961039 0.42939481268
          0.4447592068 0.49090909091 0.42939481268 0.3538961039 0.16101694915 0
          0 0 0 0 0 0
          0 0 0 0 0 0.025
          0 0 0 0 0 0
          0.025 0 0 0.05023923445 0.068391866913 0.039344262295
          0.012820512821 0.011834319527 0.039344262295 0.068391866913 0.05023923445 0
          0 0.063694267516 0.10819672131 0.10465116279 0.036984352774 0.034120734908
          0.10465116279 0.10819672131 0.063694267516 0 0 0.070981210856
          0.15544871795 0.16500711238 0.12290502793 0.11282051282 0.16500711238 0.15544871795
          0.070981210856 0 0 0.082217973231 0.19378698225 0.25459317585
          0.33974358974 0.38981042654 0.25459317585 0.19378698225 0.082217973231 0
          0 0.093418259023 0.24918032787 0.35610465116 0.41963015647 0.46456692913
          0.35610465116 0.24918032787 0.093418259023 0 0 0.10765550239
          0.30868761553 0.39508196721 0.44391025641 0.48668639053 0.39508196721 0.30868761553
          0.10765550239 0 0 0.1625 0.35645933014 0.43099787686
          0.44467640919 0.4913957935 0.43099787686 0.35645933014 0.1625 0
          0 0.16165413534 0.35446685879 0.42966751918 0.44472361809 0.49078341014
          0.42966751918 0.35446685879 0.16165413534 0 0 0
          0 0 0 0 0 0
          0 0 0 0.02786377709 0 0
          0 0 0 0 0.02786377709 0
          0 0.054117647059 0.070397111913 0.040064102564 0.014173228346 0.013005780347
          0.040064102564 0.070397111913 0.054117647059 0 0 0.066805845511
          0.11057692308 0.106685633 0.037709497207 0.034615384615 0.106685633 0.11057692308
          0.066805845511 0 0 0.074226804124 0.16062992126 0.16759776536
          0.12362637363 0.11292346299 0.16759776536 0.16062992126 0.074226804124 0
          0 0.084427767355 0.19942196532 0.25769230769 0.33877038896 0.39145496536
          0.25769230769 0.19942196532 0.084427767355 0 0 0.093945720251
          0.25320512821 0.35988620199 0.41899441341 0.46666666667 0.35988620199 0.25320512821
          0.093945720251 0 0 0.10588235294 0.31407942238 0.39903846154
          0.44409448819 0.48988439306 0.39903846154 0.31407942238 0.10588235294 0
          0 0.16718266254 0.36705882353 0.43841336117 0.44536082474 0.49530956848
          0.43841336117 0.36705882353 0.16718266254 0 0 0.16728624535
          0.36543909348 0.43718592965 0.44554455446 0.49435665914 0.43718592965 0.36543909348
          0.16728624535 0 0 0 0 0
          0 0 0 0 0 0
          0 0.025280898876 0 0 0 0
          0 0 0.025280898876 0 0 0.049568965517
          0.066666666667 0.038461538462 0.013005780347 0.012016021362 0.038461538462 0.066666666667
          0.049568965517 0 0 0.06309751434 0.1050295858 0.10367454068
          0.037179487179 0.034360189573 0.10367454068 0.1050295858 0.06309751434 0
          0 0.071294559099 0.15462427746 0.1641025641 0.12296110414 0.11316397229
          0.1641025641 0.15462427746 0.071294559099 0 0 0.082616179002
          0.19359145527 0.25473933649 0.34064665127 0.38930481283 0.25473933649 0.19359145527
          0.082616179002 0 0 0.093690248566 0.24852071006 0.35564304462
          0.41923076923 0.46327014218 0.35564304462 0.24852071006 0.093690248566 0
          0 0.10775862069 0.30833333333 0.39349112426 0.4436416185 0.48598130841
          0.39349112426 0.30833333333 0.10775862069 0 0 0.16292134831
          0.35560344828 0.43021032505 0.44465290807 0.49053356282 0.43021032505 0.35560344828
          0.16292134831 0 0 0.16216216216 0.35324675325 0.42857142857
          0.44469525959 0.48962655602 0.42857142857 0.35324675325 0.16216216216 0
          0 0 0 0 0 0
          0 0 0 0 0 0.025
          0 0 0 0 0 0
          0.025 0 0 0.05023923445 0.068391866913 0.039344262295
          0.012820512821 0.011834319527 0.039344262295 0.068391866913 0.05023923445 0
          0 0.063694267516 0.10819672131 0.10465116279 0.036984352774 0.034120734908
          0.10465116279 0.10819672131 0.063694267516 0 0 0.070981210856
          0.15544871795 0.16500711238 0.12290502793 0.11282051282 0.16500711238 0.15544871795
          0.070981210856 0 0 0.082217973231 0.19378698225 0.25459317585
          0.33974358974 0.38981042654 0.25459317585 0.19378698225 0.082217973231 0
          0 0.093418259023 0.24918032787 0.35610465116 0.41963015647 0.46456692913
          0.35610465116 0.24918032787 0.093418259023 0 0 0.10765550239
          0.30868761553 0.39508196721 0.44391025641 0.48668639053 0.39508196721 0.30868761553
          0.10765550239 0 0 0.1625 0.35645933014 0.43099787686
          0.44467640919 0.4913957935 0.43099787686 0.35645933014 0.1625 0
          0 0.16165413534 0.35446685879 0.42966751918 0.44472361809 0.49078341014
          0.42966751918 0.35446685879 0.16165413534 0 0 0
          0 0 0 0 0 0
          0 0 0 0.024647887324 0 0
          0 0 0 0 0.024647887324 0
          0 0.051212938005 0.06875 0.038817005545 0.012635379061 0.011666666667
          0.038817005545 0.06875 0.051212938005 0 0 0.064593301435
          0.10905730129 0.10491803279 0.036858974359 0.034023668639 0.10491803279 0.10905730129
          0.064593301435 0 0 0.070588235294 0.15523465704 0.16506410256
          0.12283464567 0.11271676301 0.16506410256 0.15523465704 0.070588235294 0
          0 0.081896551724 0.19333333333 0.25443786982 0.33959537572 0.38985313752
          0.25443786982 0.19333333333 0.081896551724 0 0 0.093301435407
          0.24768946396 0.35573770492 0.41987179487 0.46449704142 0.35573770492 0.24768946396
          0.093301435407 0 0 0.10781671159 0.30833333333 0.39556377079
          0.4440433213 0.48666666667 0.39556377079 0.30833333333 0.10781671159 0
          0 0.16197183099 0.35579514825 0.43062200957 0.44470588235 0.49137931034
          0.43062200957 0.35579514825 0.16197183099 0 0 0.16101694915
          0.3538961039 0.42939481268 0.4447592068 0.49090909091 0.42939481268 0.3538961039
          0.16101694915 0 0 0 0 0
          0 0 0 0 0 0
          0 0.027906976744 0 0 0 0
          0 0 0.027906976744 0 0 0.056338028169
          0.072776280323 0.040669856459 0.014117647059 0.012931034483 0.040669856459 0.072776280323
          0.056338028169 0 0 0.06875 0.11483253589 0.10828025478
          0.0375782881 0.034416826004 0.10828025478 0.11483253589 0.06875 0
          0 0.074303405573 0.16235294118 0.16910229645 0.12371134021 0.11257035647
          0.16910229645 0.16235294118 0.074303405573 0 0 0.084269662921
          0.20043103448 0.25812619503 0.33771106942 0.39242685026 0.25812619503 0.20043103448
          0.084269662921 0 0 0.09375 0.25358851675 0.36093418259
          0.41962421712 0.46845124283 0.36093418259 0.25358851675 0.09375 0
          0 0.10563380282 0.3153638814 0.4019138756 0.44470588235 0.49137931034
          0.4019138756 0.3153638814 0.10563380282 0 0 0.16744186047
          0.36971830986 0.440625 0.44582043344 0.49719101124 0.440625 0.36971830986
          0.16744186047 0 0 0.16759776536 0.3686440678 0.43984962406
          0.44609665428 0.49662162162 0.43984962406 0.3686440678 0.16759776536 0
          0 0 0 0 0 0
          0 0 0 0 0 0.027932960894
          0 0 0 0 0 0
          0.027932960894 0 0 0.055084745763 0.071428571429 0.040345821326
          0.014164305949 0.012987012987 0.040345821326 0.071428571429 0.055084745763 0
          0 0.067669172932 0.11239193084 0.1074168798 0.037688442211 0.034562211982
          0.1074168798 0.11239193084 0.067669172932 0 0 0.074349442379
          0.16147308782 0.16834170854 0.12376237624 0.11286681716 0.16834170854 0.16147308782
          0.074349442379 0 0 0.084459459459 0.2 0.25806451613
          0.33860045147 0.39211618257 0.25806451613 0.2 0.084459459459 0
          0 0.093984962406 0.25360230548 0.36061381074 0.41959798995 0.46774193548
          0.36061381074 0.25360230548 0.093984962406 0 0 0.10593220339
          0.31493506494 0.40057636888 0.4447592068 0.49090909091 0.40057636888 0.31493506494
          0.10593220339 0 0 0.16759776536 0.3686440678 0.43984962406
          0.44609665428 0.49662162162 0.43984962406 0.3686440678 0.16759776536 0
          0 0.1677852349 0.36734693878 0.43891402715 0.44642857143 0.49593495935
          0.43891402715 0.36734693878 0.1677852349 0
        </DataArray>
        <DataArray type="Float64" Name="Displacement" NumberOfComponents="3" format="ascii" RangeMin="1.7811667696" RangeMax="1.7954570106">
          -0.0044798310142 1.7913827266 -0.0074494049809 -0.0033868070953 1.7876737638 -0.0091226854495
          -0.0029054548414 1.7854163391 -0.0065076643568 -0.0030667504258 1.7849619105 -0.0060163903524
          -0.0029306794977 1.7848190738 -0.0061033401685 -0.0028832474965 1.7848554369 -0.0061973248734
          -0.0027368905221 1.7845404903 -0.0060458924585 -0.0028030151215 1.7846450218 -0.006440732857
          -0.0024762880181 1.7866364716 -0.0090249365036 -0.0011720521528 1.7900531347 -0.0073612394186
          -0.0026920628726 1.7861111838 -0.0076447490739 -0.00090980414621 1.7863278382 -0.0089030844805
          -0.0024921965591 1.7868548258 -0.0079423267659 -0.0029412909367 1.7862461328 -0.0074358786783
          -0.0028751239058 1.7858231046 -0.007275673708 -0.0026782090412 1.7854518059 -0.0071114238737
          -0.0024943263627 1.7857474965 -0.0073697554019 -0.0030045910968 1.7861730948 -0.008009713877
          -0.0044883819666 1.7853550441 -0.0088949578258 -0.0027600287566 1.7847499653 -0.0075256813002
          -0.0027686351272 1.785850649 -0.0073302548017 -0.0030499874823 1.7868834453 -0.0073087749564
          -0.0028666316628 1.7867767973 -0.0076181760895 -0.0026137295708 1.7863659943 -0.0078890202179
          -0.0025499489276 1.7864760043 -0.0082658744573 -0.0026174298454 1.7863603118 -0.0081470777081
          -0.0025489827714 1.7859430707 -0.007944618477 -0.0022706695189 1.7860381272 -0.007596195117
          -0.0020589005757 1.7857933789 -0.0072200702974 -0.0024387155494 1.7845022843 -0.0073554345215
          -0.0025213427205 1.7870209212 -0.0073442098534 -0.0024494333745 1.7865085951 -0.0073222283593
          -0.0026394714205 1.7865423228 -0.0078460793532 -0.0026331959202 1.7857441068 -0.007590605348
          -0.0024623029195 1.7856298174 -0.0077066962827 -0.0024958412329 1.7854906871 -0.0077551811433
          -0.0021702957771 1.7852320983 -0.0075060743397 -0.0022301403483 1.7857927894 -0.0078436703931
          -0.0023463458316 1.7854897104 -0.0072934770347 -0.0023611610825 1.7856276707 -0.0073372597662
          -0.0017407228993 1.787071055 -0.0079866492777 -0.0023008013706 1.7858750005 -0.0075198314333
          -0.0021986820861 1.7863039526 -0.0075572150629 -0.0022026009988 1.7858479507 -0.007778010289
          -0.0022404120691 1.7852105945 -0.007977143353 -0.0022749527529 1.7857823064 -0.0079778010375
          -0.0022861621952 1.7852809896 -0.0077786809795 -0.0023591157885 1.7855255763 -0.0075648031017
          -0.0022225478836 1.7848400353 -0.0074698036189 -0.0028198597095 1.7856618657 -0.0079769751359
          -0.0014477888042 1.7863534173 -0.0086316436435 -0.002287550793 1.7861528483 -0.0081618819112
          -0.001871165173 1.7860507428 -0.0083783011846 -0.0019472980179 1.7857625917 -0.0083610832897
          -0.0032255197025 1.7850932358 -0.0095023564387 -0.00085461620486 1.7849485394 -0.0095791826745
          -0.0023019230503 1.7852837414 -0.0084108914774 -0.002368153653 1.7852762083 -0.0083690765278
          -0.0019336209168 1.7850963912 -0.008112624576 -0.0027836720333 1.7849455403 -0.0086307545656
          -0.0012662225352 1.7866197336 -0.0087297857279 -0.0017749605382 1.7866189576 -0.0082310781777
          -0.0021112755148 1.7859510067 -0.0087022658581 -0.0015654315537 1.785267847 -0.0092752221474
          0.00059329508713 1.7858890275 -0.0066491749117 -0.0046031869414 1.7857288294 -0.006611581066
          -0.0023684118298 1.7847484398 -0.009326224177 -0.001814733066 1.7851816408 -0.0086721563754
          -0.0021015538615 1.7855526578 -0.0081702000485 -0.0026240214443 1.7852508239 -0.0086894374303
          -0.00045063108674 1.7870711039 -0.0089172629241 -0.0016186110611 1.786313745 -0.0086227497761
          -0.0029670590214 1.786212698 -0.0084760902108 -0.0039644128644 1.785468626 -0.0098784361356
          0.0027301755002 1.7849952714 -0.0055742113412 -0.0064222947166 1.78480615 -0.0056022065371
          0.00037800044048 1.7849893064 -0.0099270531469 -0.00061917026009 1.7854223538 -0.0084953463485
          -0.0018823096652 1.7852085424 -0.0085576358546 -0.0031574152067 1.7857645375 -0.0088396491316
          -0.00089320990475 1.7870591608 -0.010527516502 0.0013285274918 1.7853706378 -0.013020665861
          -0.001600183514 1.7882997835 -0.0084152787234 -0.0013347390847 1.7886169135 -0.0083155976421
          0.00032209854674 1.7866705447 -0.0089343633937 -0.0038169273277 1.7864064455 -0.0089214830986
          -0.0020546048246 1.7881084923 -0.0083329429546 -0.0017363724849 1.7875035175 -0.0084276142717
          -0.0048305231184 1.7843354081 -0.013074268466 -0.0025590551053 1.7857359127 -0.010604845378
          -0.0004790504517 1.782163274 -0.014463127751 -0.0013119623018 1.7916979757 -0.0038465451551
          0.0012730400472 1.7857959416 -0.011186375862 0.00046507220579 1.7858463303 -0.0097734113762
          -0.0022111673564 1.7935434657 -0.0024538169359 -0.00062623899231 1.7934610873 -0.0025129911691
          -0.0035337469891 1.7853341623 -0.0098490979884 -0.0043003063317 1.7849703004 -0.011317836475
          -0.0017206959019 1.79057968 -0.004004737304 -0.0026773322388 1.7811070045 -0.014343341756
          -0.0045909938568 1.7880129644 -0.0064586740077 -0.0044933075696 1.7879847218 -0.0074246303332
          -0.003435129505 1.7871474283 -0.0077601733476 -0.0029883589032 1.7863271384 -0.0074521644704
          -0.0030790718727 1.7860007467 -0.0071798871815 -0.0028454069586 1.7857008814 -0.0069501316961
          -0.002783220561 1.7858548997 -0.0073748695116 -0.0023554565346 1.7864717067 -0.0078347244798
          -0.0012601050549 1.7869224935 -0.0074215364456 -0.0011364262369 1.7867635654 -0.0064382708466
          -0.0031529946578 1.7859299382 -0.0061519506234 -0.0027493517032 1.7874129519 -0.0078848347194
          -0.0030860224987 1.786760299 -0.0074212104569 -0.0028127667182 1.7863520724 -0.0075731530449
          -0.0027426127279 1.7861989002 -0.0076465034835 -0.0027623705527 1.7861529255 -0.007791266905
          -0.0026586652454 1.7858929848 -0.0075493985808 -0.0023713810448 1.7859876851 -0.0073616246636
          -0.0027299613002 1.7863323075 -0.0078539309444 -0.0022937597782 1.784548777 -0.0061065975094
          -0.002074321198 1.787322234 -0.0080451806949 -0.0025159684957 1.7868399574 -0.0077754194969
          -0.0024959705129 1.7864640236 -0.0078021894673 -0.0025805216396 1.7859115632 -0.00732393911
          -0.0025899551744 1.7857392464 -0.0073927950762 -0.0025897502574 1.7855920318 -0.0073928658508
          -0.0026118738791 1.7854595188 -0.0073545396458 -0.0026576074794 1.7856953622 -0.0077707121545
          -0.0026304479121 1.7857973122 -0.0077637567876 -0.0030400707284 1.7859153893 -0.0079719419533
          -0.0024717797813 1.7868844618 -0.0078766195303 -0.0022771878312 1.7867306104 -0.0076702313951
          -0.0023982885746 1.7863602486 -0.0075537908798 -0.0025579056635 1.7859680055 -0.0073865951052
          -0.0024499948906 1.7857103377 -0.0076610770962 -0.0024266030881 1.7855674635 -0.0076888955629
          -0.0023045695768 1.7854952072 -0.0074023890994 -0.0024705761493 1.7855766211 -0.0075410506078
          -0.0026053480923 1.7856542752 -0.0076538293195 -0.0023639413659 1.7855243935 -0.0078305000584
          -0.0023248342524 1.787108483 -0.007752224814 -0.0019978354822 1.7865385771 -0.0079803419538
          -0.0021850666659 1.7864056532 -0.0078618782149 -0.0021737336566 1.7861217864 -0.0078829373624
          -0.0023031515885 1.7856711207 -0.0080242893477 -0.0022508948404 1.7854487056 -0.0080457926672
          -0.0023895351929 1.7856592038 -0.0079123582073 -0.0023708259327 1.7856350986 -0.0078540291238
          -0.0025685119111 1.7854798795 -0.0079838817405 -0.0022048801876 1.7857634123 -0.0077187780055
          -0.0021603302583 1.7868358244 -0.0074187417383 -0.0016829293844 1.7867116256 -0.0081694825276
          -0.0019002322821 1.7864585897 -0.008064730804 -0.0020966148242 1.7860754589 -0.0081639564693
          -0.0019451860262 1.7857760759 -0.0082886394053 -0.0022824353072 1.7855881171 -0.008297413408
          -0.0021277313882 1.7856201634 -0.0081875202011 -0.0023599956311 1.7857081241 -0.0080519453548
          -0.0025878166518 1.7856592413 -0.0081444710093 -0.0020773035757 1.7854884343 -0.0073762226165
          -0.0020041654526 1.7868684938 -0.0075413520853 -0.001217848735 1.7867277894 -0.0085956555552
          -0.0020937520507 1.7862897172 -0.0084517918501 -0.0021753086719 1.7859568925 -0.008875150676
          -0.0017708399545 1.7855803782 -0.0088527352901 -0.002171428085 1.785429214 -0.008884212014
          -0.0018083343716 1.7854936844 -0.0088679020895 -0.0018616322918 1.785528186 -0.0084657708166
          -0.0027198503341 1.785675413 -0.0085549021412 -0.001932791612 1.7855136902 -0.0075032023889
          -0.001210062951 1.7866539317 -0.0085484055904 -0.0011515293312 1.7868843646 -0.0085515739874
          -0.0015719331208 1.7864584271 -0.0083511901374 -0.0011902157596 1.7860022525 -0.0089537769422
          -0.0017011485034 1.7860052476 -0.0088796278582 -0.0019501613833 1.7858528627 -0.0088960003198
          -0.0024693013988 1.7855081159 -0.0090098590754 -0.00208098548 1.7856734353 -0.0083686209926
          -0.0024968143623 1.7858235482 -0.00853302594 -0.0024459543051 1.7853062819 -0.0085189048167
          0.00015410445226 1.7897760158 -0.0070758182914 -0.0022535842 1.7863787947 -0.0081145664064
          -0.00077414834717 1.7867151626 -0.0083899056396 -0.00091026402261 1.7861095393 -0.0085861698955
          -0.002744618685 1.7862153548 -0.010334515407 -0.00064857461238 1.7860278067 -0.010366314857
          -0.0024556194526 1.7856511446 -0.008618412077 -0.0025919630757 1.7859760641 -0.0083944525382
          -0.0011134586145 1.7853121134 -0.0081432579374 -0.0035754200606 1.7885413872 -0.0070542865983
          -0.0027652836552 1.7835007763 -0.010755666689 -0.0035374087099 1.7835898901 -0.011816926944
          -0.0033363098243 1.7849711964 -0.011099008623 -0.0038554718201 1.7876968172 -0.0084788955622
          0.0017975793154 1.7844086977 -0.0068943585242 -0.0047931296957 1.7842163164 -0.0069723186214
          0.00078172588492 1.7872535943 -0.0084183751862 0.00028521927949 1.7841785446 -0.0110587073
          0.0004913978778 1.7824850623 -0.011802512038 -0.00014399615666 1.7819323201 -0.01070024533
          -0.0026081105418 1.7863971289 -0.0065742135286 -0.0029201378081 1.7870622405 -0.0075487267179
          -0.0026362464965 1.7862131936 -0.0070676187563 -0.0029580266906 1.786087746 -0.0066784905574
          -0.0029575411524 1.7858901414 -0.006764018246 -0.0028650627261 1.7858087706 -0.0067526308205
          -0.0028595389684 1.7856580431 -0.0067116478166 -0.0031630396154 1.7854294206 -0.0070519491427
          -0.0028467322931 1.7860418025 -0.0075180280385 -0.0032548898666 1.7849133674 -0.0065334774144
          -0.0032315969283 1.7880927629 -0.007201322576 -0.0031241622928 1.786790185 -0.0069959574344
          -0.0029050278841 1.7867245301 -0.0074044838119 -0.0027863776767 1.7862172679 -0.007206338592
          -0.0027799540984 1.7861846321 -0.0073733279049 -0.002733796484 1.7860463561 -0.0073552163121
          -0.0026984483594 1.7857784246 -0.0072163313391 -0.0025891289681 1.7859498756 -0.0073746586428
          -0.0023682151976 1.7857096808 -0.0069852850809 -0.002167954028 1.7867612484 -0.0071684979016
          -0.002449226978 1.787433227 -0.0079760456164 -0.00210460031 1.7866572896 -0.0075812634858
          -0.0025726147218 1.7865286695 -0.0075459352654 -0.0026297029619 1.7861819166 -0.0074639950047
          -0.0025882804576 1.7859715518 -0.0074455745146 -0.0025782383512 1.7858029659 -0.0074346489339
          -0.0025267095342 1.7857140599 -0.0074507566242 -0.0026097028041 1.785767358 -0.0075199590153
          -0.0030439011195 1.7856003983 -0.0075464720607 -0.0027538938507 1.7860693884 -0.0079750430172
          -0.0022290963975 1.7870580951 -0.0077458257682 -0.0024586816568 1.7870023528 -0.0076543086833
          -0.002466432843 1.786582724 -0.0076355296952 -0.0024006511952 1.7862396658 -0.0077032138528
          -0.0024085063736 1.7858533521 -0.0078619484105 -0.0024559141919 1.7856857214 -0.0078557891669
          -0.0024344982184 1.78576264 -0.0077044448959 -0.002401022312 1.7858112962 -0.0076171509911
          -0.0023889490042 1.7859336864 -0.0076286533766 -0.002665233098 1.7857013551 -0.0077448687838
          -0.00189922016 1.7875337557 -0.0081412564453 -0.0020830754728 1.7870791276 -0.0077600065958
          -0.0021196602989 1.7865854076 -0.0078597080121 -0.0021708250327 1.7863394244 -0.0079482630803
          -0.0022545659217 1.7859204165 -0.0080548635115 -0.0023412479572 1.7857590312 -0.008053942209
          -0.0023676943515 1.7858766754 -0.0079124258768 -0.0024521587794 1.7858255116 -0.0078414376278
          -0.0024760288104 1.7860128323 -0.0077439686534 -0.0026924430151 1.7861781104 -0.0081438879964
          -0.0013498300788 1.7874725248 -0.0082753738438 -0.0020330354211 1.7870064863 -0.0078543390847
          -0.0019087683463 1.7866802288 -0.0080370309565 -0.0019345434577 1.7862595183 -0.008160610492
          -0.001735581148 1.7859681963 -0.00826137021 -0.0025565055373 1.7858084163 -0.0082720657305
          -0.0023338710745 1.7857907315 -0.008146854747 -0.0023695139551 1.7859064838 -0.008017297785
          -0.0022411129358 1.7859404336 -0.0078460796812 -0.0029363754763 1.7861391681 -0.0082608936157
          -0.00079749834445 1.7878815713 -0.0085766491871 -0.0012116471936 1.7870665836 -0.0083461364298
          -0.0014594165642 1.7866997091 -0.0082419197466 -0.0011809839438 1.7863305416 -0.0084045361469
          -0.00047055641032 1.7857385518 -0.0080099145592 -0.0034659984751 1.7855823814 -0.0080210480247
          -0.0027878861187 1.7858748071 -0.0084076610067 -0.0025260545873 1.7859362407 -0.0082246516446
          -0.0027396952004 1.7859998253 -0.0083320150692 -0.0031828771573 1.7865460819 -0.008556182626
          -0.0010313495533 1.7870427635 -0.0085491386987 -0.00050235309626 1.7869404206 -0.0089029388532
          -0.0010685590241 1.786438058 -0.0089104020099 -0.00092467902463 1.7858379222 -0.0090700865011
          -0.00075759156699 1.7857920946 -0.0088357615621 -0.0029193030984 1.785619556 -0.0088599723352
          -0.0027714368772 1.7853856157 -0.0090635458136 -0.0026256469876 1.7856981361 -0.0089016992244
          -0.0031626549646 1.7858726911 -0.0089075135177 -0.0026171118196 1.7856826766 -0.0085258115404
          -1.1048271918e-05 1.7868779281 -0.0086057738988 0.00024731478502 1.7884028723 -0.0078410946771
          -0.0011462464882 1.786286207 -0.0091900469342 -0.00079185369614 1.7861430407 -0.0091259830601
          -0.00078688199188 1.7841973443 -0.0098899686473 -0.0025969482271 1.7840600137 -0.0098872996285
          -0.0025937991158 1.7856623498 -0.009152481685 -0.0022568084502 1.7855231155 -0.0091977910044
          -0.0036393394163 1.7873433006 -0.0078538519362 -0.003332813952 1.7854832624 -0.008565154487
          0.0040428435025 1.7907649328 -0.0086728370321 0.0025301648259 1.7874758001 -0.0097279910489
          0.0027328062365 1.7850929869 -0.010688963275 0.0015731585003 1.7847881166 -0.0092024545897
          -0.00018961729437 1.7849668457 -0.009735554057 -0.0029404935154 1.78475696 -0.0097920857968
          -0.0046720008025 1.7843372623 -0.0091995345045 -0.0058210117461 1.7843080861 -0.010679782985
          -0.0056419455731 1.7864349156 -0.0097156290328 -0.0072223046863 1.7895742665 -0.0086854656204
          -0.0023745996951 1.7869068352 -0.0071544834236 -0.003157101979 1.7869017875 -0.0067781479589
          -0.0029060918199 1.78667166 -0.0069465998024 -0.0028641189805 1.7862599762 -0.006951553309
          -0.002959261697 1.786410686 -0.0072191193801 -0.0028085837725 1.7862449239 -0.0072329044646
          -0.0029195426171 1.7858051612 -0.0069338850696 -0.0028956204571 1.7859108677 -0.0069577783007
          -0.0026559398236 1.7858679222 -0.0067618008313 -0.0034166605693 1.7855174055 -0.0071344708849
          -0.0030820757294 1.7875552035 -0.0067883489782 -0.0030487047838 1.7872252782 -0.0072739195785
          -0.0028498771072 1.7867462766 -0.0072360261664 -0.0028104872067 1.7864965543 -0.0072556860131
          -0.0027516467104 1.7861996082 -0.0072296815662 -0.0027586971086 1.7860635708 -0.007211190955
          -0.0026772164666 1.7860281282 -0.0072594178278 -0.0026506817973 1.7859809965 -0.007230058053
          -0.0024666095319 1.7861294981 -0.0072617779896 -0.0023625781173 1.7862401493 -0.0068193599469
          -0.0028554793226 1.7877632993 -0.0073752148765 -0.0024842583401 1.787166379 -0.0075422182444
          -0.0025925765273 1.7867913271 -0.0074367851293 -0.0026029578953 1.7864465253 -0.0074649664439
          -0.0026223086912 1.7862144586 -0.0074570057994 -0.0025523647869 1.7860607271 -0.0074580131513
          -0.0025477713964 1.7859772614 -0.0074706043613 -0.0025970541991 1.7860281567 -0.0074220445747
          -0.0026958945602 1.7860852792 -0.0075209035098 -0.0023583924561 1.786352763 -0.007355853863
          -0.0021932948654 1.7874559174 -0.0078897620491 -0.0024345972439 1.7871611279 -0.0076646890294
          -0.0024167213391 1.7867936706 -0.0076712207893 -0.0023974540484 1.7864587442 -0.0076547855229
          -0.0024143116286 1.7860650764 -0.0076758855949 -0.0024192566193 1.7859150157 -0.0076650805674
          -0.0024334630105 1.78597861 -0.007697106343 -0.0024495827115 1.7860130179 -0.0076593219383
          -0.002424348831 1.7860930487 -0.007649248241 -0.0026467677709 1.7861156882 -0.0078321654234
          -0.0020909288539 1.7871587236 -0.0077969263913 -0.0019722529582 1.7871750539 -0.0079141771038
          -0.0021021760853 1.786902012 -0.007865263113 -0.0021326233566 1.7864750122 -0.0079654688748