<?xml version="1.0"?>
<VTKFile type="UnstructuredGrid" version="0.1" byte_order="LittleEndian" compressor="vtkZLibDataCompressor">
  <UnstructuredGrid>
    <FieldData>
      <DataArray type="Float64" Name="TIME" NumberOfTuples="1" format="ascii" RangeMin="0.23231816479" RangeMax="0.23231816479">
        0.23231816479
      </DataArray>
    </FieldData>
    <Piece NumberOfPoints="1000" NumberOfCells="0">
      <PointData>
        <DataArray type="Float64" Name="Damage" format="ascii" RangeMin="0" RangeMax="0.49719101124">
          0 0 0 0 0 0
          0 0 0 0 0 0.027932960894
          0 0 0 0 0 0
          0.027932960894 0 0 0.055084745763 0.071428571429 0.040345821326
          0.014164305949 0.012987012987 0.040345821326 0.071428571429 0.055084745763 0
          0 0.067669172932 0.11239193084 0.1074168798 0.037688442211 0.034562211982
          0.1074168798 0.11239193084 0.067669172932 0 0 0.074349442379
          0.16147308782 0.16834170854 0.12376237624 0.11286681716 0.16834170854 0.16147308782
          0.074349442379 0 0 0.084459459459 0.2 0.25806451613
          0.33860045147 0.39211618257 0.25806451613 0.2 0.084459459459 0
          0 0.093984962406 0.25360230548 0.36061381074 0.41959798995 0.46774193548
          0.36061381074 0.25360230548 0.093984962406 0 0 0.10593220339
          0.31493506494 0.40057636888 0.4447592068 0.49090909091 0.40057636888 0.31493506494
          0.10593220339 0 0 0.16759776536 0.3686440678 0.43984962406
          0.44609665428 0.49662162162 0.43984962406 0.3686440678 0.16759776536 0
          0 0.1677852349 0.36734693878 0.43891402715 0.44642857143 0.49593495935
          0.43891402715 0.36734693878 0.1677852349 0 0 0
          0 0 0 0 0 0
          0 0 0 0.027906976744 0 0
          0 0 0 0 0.027906976744 0
          0 0.056338028169 0.072776280323 0.040669856459 0.014117647059 0.012931034483
          0.040669856459 0.072776280323 0.056338028169 0 0 0.06875
          0.11483253589 0.10828025478 0.0375782881 0.034416826004 0.10828025478 0.11483253589
          0.06875 0 0 0.074303405573 0.16235294118 0.16910229645
          0.12371134021 0.11257035647 0.16910229645 0.16235294118 0.074303405573 0
          0 0.084269662921 0.20043103448 0.25812619503 0.33771106942 0.39242685026
          0.25812619503 0.20043103448 0.084269662921 0 0 0.09375
          0.25358851675 0.36093418259 0.41962421712 0.46845124283 0.36093418259 0.25358851675
          0.09375 0 0 0.10563380282 0.3153638814 0.4019138756
          0.44470588235 0.49137931034 0.4019138756 0.3153638814 0.10563380282 0
          0 0.16744186047 0.36971830986 0.440625 0.44582043344 0.49719101124
          0.440625 0.36971830986 0.16744186047 0 0 0.16759776536
          0.3686440678 0.43984962406 0.44609665428 0.49662162162 0.43984962406 0.3686440678
          0.16759776536 0 0 0 0 0
          0 0 0 0 0 0
          0 0.024647887324 0 0 0 0
          0 0 0.024647887324 0 0 0.051212938005
          0.06875 0.038817005545 0.012635379061 0.011666666667 0.038817005545 0.06875
          0.051212938005 0 0 0.064593301435 0.10905730129 0.10491803279
          0.036858974359 0.034023668639 0.10491803279 0.10905730129 0.064593301435 0
          0 0.070588235294 0.15523465704 0.16506410256 0.12283464567 0.11271676301
          0.16506410256 0.15523465704 0.070588235294 0 0 0.081896551724
          0.19333333333 0.25443786982 0.33959537572 0.38985313752 0.25443786982 0.19333333333
          0.081896551724 0 0 0.093301435407 0.24768946396 0.35573770492
          0.41987179487 0.46449704142 0.35573770492 0.24768946396 0.093301435407 0
          0 0.10781671159 0.30833333333 0.39556377079 0.4440433213 0.48666666667
          0.39556377079 0.30833333333 0.10781671159 0 0 0.16197183099
          0.35579514825 0.43062200957 0.44470588235 0.49137931034 0.43062200957 0.35579514825
          0.16197183099 0 0 0.16101694915 0.3538961039 0.42939481268
          0.4447592068 0.49090909091 0.42939481268 0.3538961039 0.16101694915 0
          0 0 0 0 0 0
          0 0 0 0 0 0.025
          0 0 0 0 0 0
          0.025 0 0 0.05023923445 0.068391866913 0.039344262295
          0.012820512821 0.011834319527 0.039344262295 0.068391866913 0.05023923445 0
          0 0.063694267516 0.10819672131 0.10465116279 0.036984352774 0.034120734908
          0.10465116279 0.10819672131 0.063694267516 0 0 0.070981210856
          0.15544871795 0.16500711238 0.12290502793 0.11282051282 0.16500711238 0.15544871795
          0.070981210856 0 0 0.082217973231 0.19378698225 0.25459317585
          0.33974358974 0.38981042654 0.25459317585 0.19378698225 0.082217973231 0
          0 0.093418259023 0.24918032787 0.35610465116 0.41963015647 0.46456692913
          0.35610465116 0.24918032787 0.093418259023 0 0 0.10765550239
          0.30868761553 0.39508196721 0.44391025641 0.48668639053 0.39508196721 0.30868761553
          0.10765550239 0 0 0.1625 0.35645933014 0.43099787686
          0.44467640919 0.4913957935 0.43099787686 0.35645933014 0.1625 0
          0 0.16165413534 0.35446685879 0.42966751918 0.44472361809 0.49078341014
          0.42966751918 0.35446685879 0.16165413534 0 0 0
          0 0 0 0 0 0
          0 0 0 0.02786377709 0 0
          0 0 0 0 0.02786377709 0
          0 0.054117647059 0.070397111913 0.040064102564 0.014173228346 0.013005780347
          0.040064102564 0.070397111913 0.054117647059 0 0 0.066805845511
          0.11057692308 0.106685633 0.037709497207 0.034615384615 0.106685633 0.11057692308
          0.066805845511 0 0 0.074226804124 0.16062992126 0.16759776536
          0.12362637363 0.11292346299 0.16759776536 0.16062992126 0.074226804124 0
          0 0.084427767355 0.19942196532 0.25769230769 0.33877038896 0.39145496536
          0.25769230769 0.19942196532 0.084427767355 0 0 0.093945720251
          0.25320512821 0.35988620199 0.41899441341 0.46666666667 0.35988620199 0.25320512821
          0.093945720251 0 0 0.10588235294 0.31407942238 0.39903846154
          0.44409448819 0.48988439306 0.39903846154 0.31407942238 0.10588235294 0
          0 0.16718266254 0.36705882353 0.43841336117 0.44536082474 0.49530956848
          0.43841336117 0.36705882353 0.16718266254 0 0 0.16728624535
          0.36543909348 0.43718592965 0.44554455446 0.49435665914 0.43718592965 0.36543909348
          0.16728624535 0 0 0 0 0
          0 0 0 0 0 0
          0 0.025280898876 0 0 0 0
          0 0 0.025280898876 0 0 0.049568965517
          0.066666666667 0.038461538462 0.013005780347 0.012016021362 0.038461538462 0.066666666667
          0.049568965517 0 0 0.06309751434 0.1050295858 0.10367454068
          0.037179487179 0.034360189573 0.10367454068 0.1050295858 0.06309751434 0
          0 0.071294559099 0.15462427746 0.1641025641 0.12296110414 0.11316397229
          0.1641025641 0.15462427746 0.071294559099 0 0 0.082616179002
          0.19359145527 0.25473933649 0.34064665127 0.38930481283 0.25473933649 0.19359145527
          0.082616179002 0 0 0.093690248566 0.24852071006 0.35564304462
          0.41923076923 0.46327014218 0.35564304462 0.24852071006 0.093690248566 0
          0 0.10775862069 0.30833333333 0.39349112426 0.4436416185 0.48598130841
          0.39349112426 0.30833333333 0.10775862069 0 0 0.16292134831
          0.35560344828 0.43021032505 0.44465290807 0.49053356282 0.43021032505 0.35560344828
          0.16292134831 0 0 0.16216216216 0.35324675325 0.42857142857
          0.44469525959 0.48962655602 0.42857142857 0.35324675325 0.16216216216 0
          0 0 0 0 0 0
          0 0 0 0 0 0.025
          0 0 0 0 0 0
          0.025 0 0 0.05023923445 0.068391866913 0.039344262295
          0.012820512821 0.011834319527 0.039344262295 0.068391866913 0.05023923445 0
          0 0.063694267516 0.10819672131 0.10465116279 0.036984352774 0.034120734908
          0.10465116279 0.10819672131 0.063694267516 0 0 0.070981210856
          0.15544871795 0.16500711238 0.12290502793 0.11282051282 0.16500711238 0.15544871795
          0.070981210856 0 0 0.082217973231 0.19378698225 0.25459317585
          0.33974358974 0.38981042654 0.25459317585 0.19378698225 0.082217973231 0
          0 0.093418259023 0.24918032787 0.35610465116 0.41963015647 0.46456692913
          0.35610465116 0.24918032787 0.093418259023 0 0 0.10765550239
          0.30868761553 0.39508196721 0.44391025641 0.48668639053 0.39508196721 0.30868761553
          0.10765550239 0 0 0.1625 0.35645933014 0.43099787686
          0.44467640919 0.4913957935 0.43099787686 0.35645933014 0.1625 0
          0 0.16165413534 0.35446685879 0.42966751918 0.44472361809 0.49078341014
          0.42966751918 0.35446685879 0.16165413534 0 0 0
          0 0 0 0 0 0
          0 0 0 0.024647887324 0 0
          0 0 0 0 0.024647887324 0
          0 0.051212938005 0.06875 0.038817005545 0.012635379061 0.011666666667
          0.038817005545 0.06875 0.051212938005 0 0 0.064593301435
          0.10905730129 0.10491803279 0.036858974359 0.034023668639 0.10491803279 0.10905730129
          0.064593301435 0 0 0.070588235294 0.15523465704 0.16506410256
          0.12283464567 0.11271676301 0.16506410256 0.15523465704 0.070588235294 0
          0 0.081896551724 0.19333333333 0.25443786982 0.33959537572 0.38985313752
          0.25443786982 0.19333333333 0.081896551724 0 0 0.093301435407
          0.24768946396 0.35573770492 0.41987179487 0.46449704142 0.35573770492 0.24768946396
          0.093301435407 0 0 0.10781671159 0.30833333333 0.39556377079
          0.4440433213 0.48666666667 0.39556377079 0.30833333333 0.10781671159 0
          0 0.16197183099 0.35579514825 0.43062200957 0.44470588235 0.49137931034
          0.43062200957 0.35579514825 0.16197183099 0 0 0.16101694915
          0.3538961039 0.42939481268 0.4447592068 0.49090909091 0.42939481268 0.3538961039
          0.16101694915 0 0 0 0 0
          0 0 0 0 0 0
          0 0.027906976744 0 0 0 0
          0 0 0.027906976744 0 0 0.056338028169
          0.072776280323 0.040669856459 0.014117647059 0.012931034483 0.040669856459 0.072776280323
          0.056338028169 0 0 0.06875 0.11483253589 0.10828025478
          0.0375782881 0.034416826004 0.10828025478 0.11483253589 0.06875 0
          0 0.074303405573 0.16235294118 0.16910229645 0.12371134021 0.11257035647
          0.16910229645 0.16235294118 0.074303405573 0 0 0.084269662921
          0.20043103448 0.25812619503 0.33771106942 0.39242685026 0.25812619503 0.20043103448
          0.084269662921 0 0 0.09375 0.25358851675 0.36093418259
          0.41962421712 0.46845124283 0.36093418259 0.25358851675 0.09375 0
          0 0.10563380282 0.3153638814 0.4019138756 0.44470588235 0.49137931034
          0.4019138756 0.3153638814 0.10563380282 0 0 0.16744186047
          0.36971830986 0.440625 0.44582043344 0.49719101124 0.440625 0.36971830986
          0.16744186047 0 0 0.16759776536 0.3686440678 0.43984962406
          0.44609665428 0.49662162162 0.43984962406 0.3686440678 0.16759776536 0
          0 0 0 0 0 0
          0 0 0 0 0 0.027932960894
          0 0 0 0 0 0
          0.027932960894 0 0 0.055084745763 0.071428571429 0.040345821326
          0.014164305949 0.012987012987 0.040345821326 0.071428571429 0.055084745763 0
          0 0.067669172932 0.11239193084 0.1074168798 0.037688442211 0.034562211982
          0.1074168798 0.11239193084 0.067669172932 0 0 0.074349442379
          0.16147308782 0.16834170854 0.12376237624 0.11286681716 0.16834170854 0.16147308782
          0.074349442379 0 0 0.084459459459 0.2 0.25806451613
          0.33860045147 0.39211618257 0.25806451613 0.2 0.084459459459 0
          0 0.093984962406 0.25360230548 0.36061381074 0.41959798995 0.46774193548
          0.36061381074 0.25360230548 0.093984962406 0 0 0.10593220339
          0.31493506494 0.40057636888 0.4447592068 0.49090909091 0.40057636888 0.31493506494
          0.10593220339 0 0 0.16759776536 0.3686440678 0.43984962406
          0.44609665428 0.49662162162 0.43984962406 0.3686440678 0.16759776536 0
          0 0.1677852349 0.36734693878 0.43891402715 0.44642857143 0.49593495935
          0.43891402715 0.36734693878 0.1677852349 0
        </DataArray>
        <DataArray type="Float64" Name="Displacement" NumberOfComponents="3" format="ascii" RangeMin="1.7471832792" RangeMax="1.7632469817">
          -0.0023187645726 1.7535459015 -0.0073189158965 -0.0027145526814 1.7545600282 -0.0057866117672
          -0.0028387294212 1.7569455372 -0.0086900484839 -0.0031745572934 1.756034908 -0.0078456239839
          -0.0031231693757 1.7555964818 -0.0076000375885 -0.0033303729521 1.7552127728 -0.0074445853434
          -0.0033491550719 1.7554652308 -0.0078276954018 -0.003580082215 1.7560295582 -0.00859458734
          -0.0038292444473 1.7532738343 -0.0059048190171 -0.004226935686 1.751986158 -0.0073537230382
          -0.0032164569692 1.7563073727 -0.0075998362152 -0.00046152649979 1.7557962131 -0.0092834281498
          -0.0025605006146 1.7563992284 -0.0084986497006 -0.0029272122081 1.7561377729 -0.0082254526318
          -0.0029068785171 1.755878466 -0.0080493058601 -0.0031860570869 1.7555467338 -0.0078830347035
          -0.0032078182974 1.7555732797 -0.008165441239 -0.0036085655045 1.7556430045 -0.0085980746703
          -0.0056940873596 1.754719486 -0.0093599193342 -0.0030251103837 1.7546369003 -0.0077010845627
          -0.0022759169364 1.7552859641 -0.0082810196087 -0.0028903969703 1.7557473975 -0.008210386026
          -0.002774599996 1.7557500212 -0.0080183384836 -0.0028407161642 1.7561484762 -0.0085231731778
          -0.002882908149 1.7552762381 -0.0079157301868 -0.0029364253306 1.7550538733 -0.0077137607003
          -0.0029331438154 1.7556446525 -0.0085192420277 -0.003028175894 1.7549213858 -0.0079928841848
          -0.0028620944826 1.7545576573 -0.0081434815704 -0.0035526603017 1.7537592145 -0.0083213908915
          -0.0033444177961 1.7563351497 -0.0084808350148 -0.002866887198 1.756781468 -0.0086693950214
          -0.002692040374 1.7557179116 -0.0086559159826 -0.0026361619854 1.7562993834 -0.0089449885403
          -0.002655973998 1.7561583011 -0.0087815455822 -0.002853058355 1.7559014216 -0.0087592985721
          -0.0028835251959 1.755886659 -0.0089608337428 -0.0027753179181 1.7548725269 -0.0086241365455
          -0.0025717085605 1.7555614598 -0.0086153237293 -0.0021843649479 1.7548119007 -0.0085273232086
          -0.0034637002416 1.7563377971 -0.0084523041145 -0.002961176486 1.7568792384 -0.0089251024787
          -0.0025695089357 1.7559308908 -0.0088936862124 -0.0025206795351 1.755685846 -0.008843558167
          -0.0023228506766 1.7561238266 -0.0085090704284 -0.0024234917532 1.7555336521 -0.0087399523017
          -0.0027119649417 1.7552379993 -0.0087861505512 -0.0025644195468 1.7550916466 -0.008854416362
          -0.002132002612 1.7556488327 -0.0088897581529 -0.0017064094469 1.7547895406 -0.0084873876445
          -0.0032944318008 1.756166431 -0.0085694708827 -0.0026958958081 1.7565688064 -0.0090048643685
          -0.0024364255523 1.7562434833 -0.0091858278421 -0.0024744217459 1.7561736505 -0.0090551029527
          -0.0031566430335 1.7560042009 -0.0093177563935 -0.0015266147071 1.7556821297 -0.0093871970497
          -0.0022964667027 1.7556148413 -0.0089815234244 -0.0023579805386 1.7553734633 -0.0091540632326
          -0.0020380068003 1.7553531687 -0.008984705242 -0.0014972900602 1.7546668281 -0.0085708598409
          -0.0028869458339 1.7558365026 -0.0092624318288 -0.0022511924605 1.756165638 -0.0096546027394
          -0.0025787903728 1.755767759 -0.009655096274 -0.0031601006404 1.7563514458 -0.0091442350041
          0.00022376412436 1.7565605662 -0.0070300681755 -0.0047615940702 1.7564253454 -0.0069063178684
          -0.0012123512719 1.7558636408 -0.0091013437957 -0.0018352884878 1.7548884333 -0.0096492136068
          -0.002108145495 1.7549796951 -0.009595245502 -0.0015676951687 1.754289146 -0.0092660481462
          -0.0020113070018 1.7570284566 -0.0099199211789 -0.00099987198334 1.7558703166 -0.010798784688
          -0.0042293332986 1.7559076709 -0.0095251516966 -0.0058711373456 1.7558035283 -0.010966113509
          -0.00083070469157 1.7555286878 -0.0092246833885 -0.0032687526528 1.7553770844 -0.0091585437109
          0.0018741402742 1.7552723798 -0.010978229135 0.00020925303465 1.7550312977 -0.0095145820524
          -0.0030076080493 1.7546446897 -0.010760203568 -0.0022119523988 1.7555159117 -0.010012497957
          -0.0019844398681 1.7582077356 -0.0069975037467 -0.0020186852827 1.7542826728 -0.0094901178932
          -0.0020899231027 1.7573712456 -0.007848812635 -0.0025872659323 1.7573566778 -0.007705098857
          -0.0050192294265 1.7565559121 -0.0098820702233 0.0013078859169 1.7564391137 -0.0098191200733
          -0.0011932150683 1.7568981397 -0.0076507377957 -0.0015849528221 1.7565548164 -0.0078251989702
          -0.0017048508291 1.7530911788 -0.0094862046622 -0.0016373610641 1.7567013245 -0.0068520549277
          -0.0019261986101 1.758940747 -0.0077327400607 -0.0018499988613 1.7574833097 -0.0095041921791
          -2.0959102846e-05 1.7591040516 -0.0064972046423 -0.0014401127045 1.7586348913 -0.0067469672841
          0.00016997073611 1.747325139 -0.016687393345 -0.0038020746595 1.7471006194 -0.016564456565
          -0.0019784328379 1.7581944125 -0.0066172915347 -0.0033718586913 1.7582727401 -0.0064167454868
          -0.0014391608365 1.7564540715 -0.0092177136375 -0.0014002423084 1.7570506788 -0.0080223308026
          -0.0015044140447 1.7548085056 -0.0079975663427 -0.004810640009 1.757911194 -0.0080882346257
          -0.0031590956111 1.7567940428 -0.0082030337691 -0.0035758670332 1.7565074111 -0.0079516777051
          -0.0031599224097 1.7561638437 -0.0077885269956 -0.0032284211328 1.7558031644 -0.0076402147402
          -0.0028934105781 1.7559723396 -0.0078893587772 -0.0033548165358 1.7560077714 -0.0083379789506
          -0.0016699250376 1.7567445721 -0.0081010232372 -0.0050540885014 1.7531268246 -0.007996260418
          -0.0032500902577 1.7555388635 -0.0066953787443 -0.0028886693576 1.7570872216 -0.0087562854203
          -0.0027947314088 1.7559366601 -0.0077828239461 -0.0030540835584 1.7563931737 -0.0080937198565
          -0.0031004718022 1.7563195287 -0.00803878662 -0.0030350477551 1.7558572238 -0.0077485774832
          -0.0031003007558 1.7559557196 -0.0081534249841 -0.00337362958 1.7551071684 -0.0077945892377
          -0.0033048004882 1.7558704893 -0.0087554476286 -0.0029457122756 1.7539751193 -0.006713127138
          -0.0017857929353 1.7562017956 -0.0088598267377 -0.0026039172022 1.7565323265 -0.0084973539823
          -0.003107921242 1.7562438246 -0.0081089856312 -0.0029259009964 1.7565406 -0.0085318623931
          -0.0029125896537 1.7563623862 -0.0084980258186 -0.0028943005865 1.7561736549 -0.0084787155961
          -0.0028974127768 1.7559932597 -0.0084860130327 -0.002711143176 1.7554052932 -0.0081076916105
          -0.0032257469711 1.7553139229 -0.0084749252133 -0.0039632496725 1.7546620557 -0.0088070631503
          -0.0024989906627 1.7568717503 -0.0089333452112 -0.0027201561056 1.7567345047 -0.0090003645656
          -0.0027607344794 1.7564038554 -0.0086590132339 -0.0028180267104 1.7563489103 -0.0085628374835
          -0.0027479522563 1.7561726718 -0.0085412758966 -0.0027118889936 1.7559957852 -0.0085185992992
          -0.0026498663148 1.7558187128 -0.008547166432 -0.0027189703514 1.7555356628 -0.0086371070687
          -0.0027384470175 1.7555407705 -0.0089852441703 -0.0029024755938 1.7553163098 -0.0089258274854
          -0.0024745693857 1.7567251338 -0.0087823216791 -0.0022065955235 1.7565055998 -0.008815719201
          -0.0027570446508 1.7563061882 -0.0089217585016 -0.0026592139389 1.7563469545 -0.008665807089
          -0.0025748458804 1.7561680993 -0.0086749886205 -0.002564442255 1.7558962304 -0.0086988876234
          -0.0024828419325 1.7558333808 -0.0086852126335 -0.0023707258848 1.755442033 -0.0089048111761
          -0.0029016057532 1.755298211 -0.0087992946232 -0.0025947253828 1.7551597734 -0.008776600279
          -0.0028920149502 1.756858792 -0.0089657035679 -0.0026446685415 1.756273381 -0.0094849894714
          -0.0027699617613 1.7561691982 -0.0095026573903 -0.0023216751258 1.7562525198 -0.0093741219327
          -0.0020816159051 1.7561567785 -0.0091309484571 -0.002681321139 1.7559661817 -0.0091193381687
          -0.0024823854956 1.7557527891 -0.009374800524 -0.0019997676896 1.7552993235 -0.0094933911447
          -0.0021255529402 1.7550601985 -0.0094832462099 -0.001839216409 1.7552905799 -0.008948568695
          -0.0027009756655 1.7567313387 -0.0091166568584 -0.0024797996557 1.7563915311 -0.0094587574703
          -0.0023479803125 1.7563991618 -0.009359439994 -0.0028136174265 1.7561675987 -0.0095671712261
          -0.0028244259479 1.7563002647 -0.009694454777 -0.0015937993435 1.7561261784 -0.0097241464416
          -0.0016015914539 1.7556353315 -0.00958443767 -0.0020845934703 1.7555437947 -0.0093539456248
          -0.0019450159254 1.7551744908 -0.0094600016757 -0.0016905598344 1.7551846535 -0.0090956260937
          -0.0019239375713 1.7565716057 -0.01047141879 -0.0020305463015 1.7564407546 -0.01000672747
          -0.0022652725604 1.756244861 -0.0099612237112 -0.0029364634043 1.7561972465 -0.01030825637
          -0.0026341893421 1.7554336774 -0.010431749705 -0.0013979135437 1.7552820533 -0.010430798461
          -0.001120981375 1.7557059579 -0.010255805902 -0.001831534284 1.7553873837 -0.009925978974
          -0.0020299678332 1.7552248402 -0.0099659058748 -0.0021298607387 1.755012881 -0.010461070563
          -0.0016848619775 1.7585301885 -0.0093784230979 -0.0034640574428 1.7551705683 -0.010148043446
          -0.0023868975708 1.7561629453 -0.0097765146311 -0.00243819858 1.7560517111 -0.010031549114
          -0.003693631078 1.7564547568 -0.010936984415 -3.8997213699e-05 1.7562656458 -0.010895780455
          -0.0012491813545 1.7555303657 -0.010028291137 -0.0013255650809 1.7552714942 -0.009768711528
          -0.00024827911207 1.7538983671 -0.010157174712 -0.0020444041703 1.7570447564 -0.0092866802867
          0.0011928386544 1.7613629402 -0.0085637415191 -0.0013621957736 1.7545917282 -0.012902617867
          -0.002736458924 1.754805243 -0.011884964137 -0.0028586653617 1.7571479322 -0.0096610991621
          0.003250351525 1.7541857183 -0.0092666161779 -0.0067672656095 1.7540182904 -0.0092058983972
          -0.00052317696578 1.7566912498 -0.009594356032 -0.00056223327324 1.7539596943 -0.011925010325
          -0.0018280822753 1.7532913278 -0.012935180169 -0.004456216981 1.759799242 -0.0085619708323
          -0.0038560493526 1.7570569291 -0.0073541013987 -0.0030098276243 1.7568524868 -0.0079673324092
          -0.0031164041516 1.7564240424 -0.0076397922815 -0.0031935119478 1.7570868629 -0.0083277461666
          -0.0032753985492 1.7571789897 -0.008642921765 -0.0032058158029 1.7570457409 -0.0085501987863
          -0.0032708905007 1.7565846139 -0.0082706081856 -0.0033760560606 1.7555749139 -0.0076130247852
          -0.0034599556255 1.7557025579 -0.0079645182679 -0.0026595028517 1.7554967201 -0.0073079401963
          -0.0034828561606 1.7576897227 -0.0079339976604 -0.0023103033683 1.7565544308 -0.0083654576134
          -0.0029651902514 1.7565392836 -0.0079491686518 -0.0030796718321 1.7567205984 -0.0080705018929
          -0.003089760466 1.7565114173 -0.0080135710874 -0.0030910885086 1.7563559794 -0.0079979542713
          -0.0030663321028 1.7561870711 -0.0080318014805 -0.0031851942018 1.75570396 -0.0079432191955
          -0.0038503855871 1.7553518851 -0.0083390151562 -0.0026059136673 1.7562075471 -0.0079296840059
          -0.0028493158265 1.7566374505 -0.0084253079778 -0.0034575336216 1.7570129514 -0.0080928027171
          -0.0029716102279 1.7567543273 -0.0083258553888 -0.0029620758186 1.7566329663 -0.0083369301745
          -0.0029311236234 1.7564463129 -0.008399458393 -0.0028334201866 1.7562616186 -0.0083717202615
          -0.0028691947594 1.7561161149 -0.0083148925896 -0.0028398006077 1.7558882051 -0.0083173739898
          -0.0023965601262 1.7558022465 -0.0080943379141 -0.0029762440276 1.7550877647 -0.0084056916541
          -0.0028062198871 1.7569736799 -0.0089468189578 -0.0028174434797 1.7568586705 -0.0087516005454
          -0.0028385864744 1.7566609961 -0.0085753406029 -0.0027785956025 1.7565934282 -0.0086025729295
          -0.0027599834177 1.7565079642 -0.0085435891444 -0.0026964193686 1.7563845355 -0.0085209905977
          -0.0027125324234 1.7560826147 -0.0085906760318 -0.0026362147291 1.7558071007 -0.0085851201894
          -0.002674629295 1.7556450731 -0.0087497993402 -0.0026345412308 1.755420593 -0.0088980061015
          -0.0027458425652 1.7569321427 -0.0089840818112 -0.0026329991774 1.7568981573 -0.0088319164035
          -0.0026990114529 1.7566187349 -0.0088539772281 -0.0026430624841 1.7566168744 -0.00883807014
          -0.0025797494973 1.7564495716 -0.0088510040244 -0.0025133030829 1.7563679343 -0.0088654507841
          -0.0024976704834 1.7560974604 -0.0088348394804 -0.0024340473094 1.755776849 -0.0088550796571
          -0.0024880877831 1.7556869226 -0.0088225015646 -0.0023319449505 1.7553839053 -0.0089279797376
          -0.0028739424041 1.7563472193 -0.0090120307937 -0.0023393179835 1.7568124303 -0.0092881306401
          -0.0026143196498 1.7565969156 -0.0091463264377 -0.0025618487977 1.7566226578 -0.0092072797338
          -0.0025527242838 1.7564055543 -0.0093133215427 -0.0022037254623 1.7562354157 -0.0093530497644
          -0.0022130376318 1.756108405 -0.0091977603278 -0.0021567158393 1.7557395679 -0.0091401172214
          -0.0024167587635 1.7555878829 -0.0092697884349 -0.001864157742 1.7547721303 -0.008971615734
          -0.0027516974729 1.7565904078 -0.009552638171 -0.0027084856309 1.7566806533 -0.0093640258975
          -0.0024815344762 1.7565889826 -0.0092972449939 -0.0027032602845 1.7565081751 -0.0094840505019
          -0.0029879315076 1.7564132165 -0.0098787062214 -0.0014401268234 1.7562519459 -0.0098542869
          -0.001713954572 1.7559867574 -0.0094805119203 -0.0019199057352 1.7557145665 -0.00927796541
          -0.001732508928 1.7554553685 -0.0093697364523 -0.0016381795166 1.7550135975 -0.0095281229716
          -0.0022639892733 1.7572775498 -0.0094219824219 -0.0032561031275 1.7565376235 -0.0091535339227
          -0.0021835221222 1.7564990744 -0.0099433199455 -0.0020472485568 1.7564821082 -0.0096455914053
          -0.0027024394127 1.7566492428 -0.010002582189 -0.0013945913591 1.7564797267 -0.0099809394254
          -0.0019948097916 1.755956041 -0.00965224967 -0.0018717483294 1.7556199378 -0.0099494431979
          -0.00083250568901 1.7553336243 -0.0091361163589 -0.0018042387889 1.7557323916 -0.0094094844521
          -0.0026567272514 1.7566462111 -0.0099593818922 -0.0014202957476 1.7569289111 -0.010289673789
          -0.0027646863224 1.7567488166 -0.0098231332942 -0.0017767425581 1.7563566139 -0.0099066184775
          -0.0019817782406 1.7561824769 -0.0098564879169 -0.0016963462465 1.7560495824 -0.0098448253822
          -0.0019557687185 1.7558581815 -0.0098921271764 -0.0009798253533 1.7559196716 -0.0098149030922
          -0.0022748807581 1.7557072593 -0.010284597953 -0.0010299241257 1.755016042 -0.0099190653275
          -0.0062960359742 1.7521552183 -0.0099087682428 -0.00015184364585 1.7578197221 -0.010395889111
          0.00054547905771 1.7561175561 -0.011786457563 -0.00011882999897 1.7552726773 -0.011098129851
          -0.0071971326012 1.7587641663 -0.01110829905 0.003896988158 1.7586218671 -0.011116061375
          -0.003245627886 1.7547841658 -0.011050342294 -0.0038933828681 1.7553181645 -0.01172963965
          -0.003299387623 1.756624127 -0.010402913193 0.0027552483113 1.7507206646 -0.0099027177386
          -0.0028697810532 1.7568030765 -0.0081161641878 -0.0032481391145 1.7571841827 -0.0082074536599
          -0.0031283762095 1.7569950737 -0.0078188572855 -0.0034395183446 1.7570526575 -0.0080584575919
          -0.0032674638805 1.756580804 -0.0077722341258 -0.0032251639768 1.756405431 -0.0077795394332
          -0.0030732100188 1.756557335 -0.008027016858 -0.0033634896026 1.7561563764 -0.0077758955672
          -0.003273528583 1.756013414 -0.0081679487527 -0.0037447775562 1.7551596524 -0.0080967936073
          -0.0030113925147 1.7576625254 -0.0083730844976 -0.0031516586265 1.7570596505 -0.0080297368838
          -0.0031026547015 1.7570374622 -0.008073092529 -0.0030881198794 1.7570934036 -0.0081076359207
          -0.003053033865 1.7567570738 -0.0080279482088 -0.0031112338088 1.756624803 -0.0080140477771
          -0.0030806202762 1.7566112572 -0.0080913259308 -0.0030537512364 1.7561858851 -0.0080509631607
          -0.0030078689504 1.7558842129 -0.0080173969993 -0.0030694359517 1.7561281881 -0.0083262098369
          -0.0032810716273 1.757669693 -0.0084100556401 -0.0030616146121 1.7572831747 -0.0084340827621
          -0.0029423741311 1.7570836626 -0.0084018250309 -0.0029788721455 1.7569139739 -0.0083779351027
          -0.0029136134698 1.7567116708 -0.0083663669227 -0.0029261345206 1.756544268 -0.0083627385283
          -0.0028660876147 1.7564213519 -0.0083361007326 -0.0028756667118 1.7562293521 -0.0083907074315
          -0.0027604410559 1.7560717073 -0.008410780344 -0.0024915853978 1.7561674277 -0.0083993001639
          -0.0030565707202 1.7573558752 -0.0085926516409 -0.0028242035979 1.7570612739 -0.0086726417938
          -0.0028239975424 1.7569137395 -0.0086851022458 -0.0027842174612 1.7568619672 -0.0086595721305
          -0.0027648522301 1.7568074934 -0.0086761518713 -0.0027200448624 1.7566579496 -0.0086912143192
          -0.0027311294354 1.7563622778 -0.0085968908072 -0.0026494885353 1.7560666565 -0.0086685927987
          -0.002656819491 1.7558598772 -0.0086552947338 -0.0024482988005 1.7557904205 -0.0086066003402
          -0.0026902237474 1.757336806 -0.0090682598446 -0.0026654529516 1.7569900418 -0.0089323315467
          -0.0025941572433 1.7570014012 -0.0089282919902 -0.0026003600199 1.7569286683 -0.0088693648312