<?xml version="1.0"?>
<VTKFile type="UnstructuredGrid" version="0.1" byte_order="LittleEndian" compressor="vtkZLibDataCompressor">
  <UnstructuredGrid>
    <FieldData>
      <DataArray type="Float64" Name="TIME" NumberOfTuples="1" format="ascii" RangeMin="0.27420569603" RangeMax="0.27420569603">
        0.27420569603
      </DataArray>
    </FieldData>
    <Piece NumberOfPoints="1000" NumberOfCells="0">
      <PointData>
        <DataArray type="Float64" Name="Damage" format="ascii" RangeMin="0" RangeMax="0.49719101124">
          0 0 0 0 0 0
          0 0 0 0 0 0.027932960894
          0 0 0 0 0 0
          0.027932960894 0 0 0.055084745763 0.071428571429 0.040345821326
          0.014164305949 0.012987012987 0.040345821326 0.071428571429 0.055084745763 0
          0 0.067669172932 0.11239193084 0.1074168798 0.037688442211 0.034562211982
          0.1074168798 0.11239193084 0.067669172932 0 0 0.074349442379
          0.16147308782 0.16834170854 0.12376237624 0.11286681716 0.16834170854 0.16147308782
          0.074349442379 0 0 0.084459459459 0.2 0.25806451613
          0.33860045147 0.39211618257 0.25806451613 0.2 0.084459459459 0
          0 0.093984962406 0.25360230548 0.36061381074 0.41959798995 0.46774193548
          0.36061381074 0.25360230548 0.093984962406 0 0 0.10593220339
          0.31493506494 0.40057636888 0.4447592068 0.49090909091 0.40057636888 0.31493506494
          0.10593220339 0 0 0.16759776536 0.3686440678 0.43984962406
          0.44609665428 0.49662162162 0.43984962406 0.3686440678 0.16759776536 0
          0 0.1677852349 0.36734693878 0.43891402715 0.44642857143 0.49593495935
          0.43891402715 0.36734693878 0.1677852349 0 0 0
          0 0 0 0 0 0
          0 0 0 0.027906976744 0 0
          0 0 0 0 0.027906976744 0
          0 0.056338028169 0.072776280323 0.040669856459 0.014117647059 0.012931034483
          0.040669856459 0.072776280323 0.056338028169 0 0 0.06875
          0.11483253589 0.10828025478 0.0375782881 0.034416826004 0.10828025478 0.11483253589
          0.06875 0 0 0.074303405573 0.16235294118 0.16910229645
          0.12371134021 0.11257035647 0.16910229645 0.16235294118 0.074303405573 0
          0 0.084269662921 0.20043103448 0.25812619503 0.33771106942 0.39242685026
          0.25812619503 0.20043103448 0.084269662921 0 0 0.09375
          0.25358851675 0.36093418259 0.41962421712 0.46845124283 0.36093418259 0.25358851675
          0.09375 0 0 0.10563380282 0.3153638814 0.4019138756
          0.44470588235 0.49137931034 0.4019138756 0.3153638814 0.10563380282 0
          0 0.16744186047 0.36971830986 0.440625 0.44582043344 0.49719101124
          0.440625 0.36971830986 0.16744186047 0 0 0.16759776536
          0.3686440678 0.43984962406 0.44609665428 0.49662162162 0.43984962406 0.3686440678
          0.16759776536 0 0 0 0 0
          0 0 0 0 0 0
          0 0.024647887324 0 0 0 0
          0 0 0.024647887324 0 0 0.051212938005
          0.06875 0.038817005545 0.012635379061 0.011666666667 0.038817005545 0.06875
          0.051212938005 0 0 0.064593301435 0.10905730129 0.10491803279
          0.036858974359 0.034023668639 0.10491803279 0.10905730129 0.064593301435 0
          0 0.070588235294 0.15523465704 0.16506410256 0.12283464567 0.11271676301
          0.16506410256 0.15523465704 0.070588235294 0 0 0.081896551724
          0.19333333333 0.25443786982 0.33959537572 0.38985313752 0.25443786982 0.19333333333
          0.081896551724 0 0 0.093301435407 0.24768946396 0.35573770492
          0.41987179487 0.46449704142 0.35573770492 0.24768946396 0.093301435407 0
          0 0.10781671159 0.30833333333 0.39556377079 0.4440433213 0.48666666667
          0.39556377079 0.30833333333 0.10781671159 0 0 0.16197183099
          0.35579514825 0.43062200957 0.44470588235 0.49137931034 0.43062200957 0.35579514825
          0.16197183099 0 0 0.16101694915 0.3538961039 0.42939481268
          0.4447592068 0.49090909091 0.42939481268 0.3538961039 0.16101694915 0
          0 0 0 0 0 0
          0 0 0 0 0 0.025
          0 0 0 0 0 0
          0.025 0 0 0.05023923445 0.068391866913 0.039344262295
          0.012820512821 0.011834319527 0.039344262295 0.068391866913 0.05023923445 0
          0 0.063694267516 0.10819672131 0.10465116279 0.036984352774 0.034120734908
          0.10465116279 0.10819672131 0.063694267516 0 0 0.070981210856
          0.15544871795 0.16500711238 0.12290502793 0.11282051282 0.16500711238 0.15544871795
          0.070981210856 0 0 0.082217973231 0.19378698225 0.25459317585
          0.33974358974 0.38981042654 0.25459317585 0.19378698225 0.082217973231 0
          0 0.093418259023 0.24918032787 0.35610465116 0.41963015647 0.46456692913
          0.35610465116 0.24918032787 0.093418259023 0 0 0.10765550239
          0.30868761553 0.39508196721 0.44391025641 0.48668639053 0.39508196721 0.30868761553
          0.10765550239 0 0 0.1625 0.35645933014 0.43099787686
          0.44467640919 0.4913957935 0.43099787686 0.35645933014 0.1625 0
          0 0.16165413534 0.35446685879 0.42966751918 0.44472361809 0.49078341014
          0.42966751918 0.35446685879 0.16165413534 0 0 0
          0 0 0 0 0 0
          0 0 0 0.02786377709 0 0
          0 0 0 0 0.02786377709 0
          0 0.054117647059 0.070397111913 0.040064102564 0.014173228346 0.013005780347
          0.040064102564 0.070397111913 0.054117647059 0 0 0.066805845511
          0.11057692308 0.106685633 0.037709497207 0.034615384615 0.106685633 0.11057692308
          0.066805845511 0 0 0.074226804124 0.16062992126 0.16759776536
          0.12362637363 0.11292346299 0.16759776536 0.16062992126 0.074226804124 0
          0 0.084427767355 0.19942196532 0.25769230769 0.33877038896 0.39145496536
          0.25769230769 0.19942196532 0.084427767355 0 0 0.093945720251
          0.25320512821 0.35988620199 0.41899441341 0.46666666667 0.35988620199 0.25320512821
          0.093945720251 0 0 0.10588235294 0.31407942238 0.39903846154
          0.44409448819 0.48988439306 0.39903846154 0.31407942238 0.10588235294 0
          0 0.16718266254 0.36705882353 0.43841336117 0.44536082474 0.49530956848
          0.43841336117 0.36705882353 0.16718266254 0 0 0.16728624535
          0.36543909348 0.43718592965 0.44554455446 0.49435665914 0.43718592965 0.36543909348
          0.16728624535 0 0 0 0 0
          0 0 0 0 0 0
          0 0.025280898876 0 0 0 0
          0 0 0.025280898876 0 0 0.049568965517
          0.066666666667 0.038461538462 0.013005780347 0.012016021362 0.038461538462 0.066666666667
          0.049568965517 0 0 0.06309751434 0.1050295858 0.10367454068
          0.037179487179 0.034360189573 0.10367454068 0.1050295858 0.06309751434 0
          0 0.071294559099 0.15462427746 0.1641025641 0.12296110414 0.11316397229
          0.1641025641 0.15462427746 0.071294559099 0 0 0.082616179002
          0.19359145527 0.25473933649 0.34064665127 0.38930481283 0.25473933649 0.19359145527
          0.082616179002 0 0 0.093690248566 0.24852071006 0.35564304462
          0.41923076923 0.46327014218 0.35564304462 0.24852071006 0.093690248566 0
          0 0.10775862069 0.30833333333 0.39349112426 0.4436416185 0.48598130841
          0.39349112426 0.30833333333 0.10775862069 0 0 0.16292134831
          0.35560344828 0.43021032505 0.44465290807 0.49053356282 0.43021032505 0.35560344828
          0.16292134831 0 0 0.16216216216 0.35324675325 0.42857142857
          0.44469525959 0.48962655602 0.42857142857 0.35324675325 0.16216216216 0
          0 0 0 0 0 0
          0 0 0 0 0 0.025
          0 0 0 0 0 0
          0.025 0 0 0.05023923445 0.068391866913 0.039344262295
          0.012820512821 0.011834319527 0.039344262295 0.068391866913 0.05023923445 0
          0 0.063694267516 0.10819672131 0.10465116279 0.036984352774 0.034120734908
          0.10465116279 0.10819672131 0.063694267516 0 0 0.070981210856
          0.15544871795 0.16500711238 0.12290502793 0.11282051282 0.16500711238 0.15544871795
          0.070981210856 0 0 0.082217973231 0.19378698225 0.25459317585
          0.33974358974 0.38981042654 0.25459317585 0.19378698225 0.082217973231 0
          0 0.093418259023 0.24918032787 0.35610465116 0.41963015647 0.46456692913
          0.35610465116 0.24918032787 0.093418259023 0 0 0.10765550239
          0.30868761553 0.39508196721 0.44391025641 0.48668639053 0.39508196721 0.30868761553
          0.10765550239 0 0 0.1625 0.35645933014 0.43099787686
          0.44467640919 0.4913957935 0.43099787686 0.35645933014 0.1625 0
          0 0.16165413534 0.35446685879 0.42966751918 0.44472361809 0.49078341014
          0.42966751918 0.35446685879 0.16165413534 0 0 0
          0 0 0 0 0 0
          0 0 0 0.024647887324 0 0
          0 0 0 0 0.024647887324 0
          0 0.051212938005 0.06875 0.038817005545 0.012635379061 0.011666666667
          0.038817005545 0.06875 0.051212938005 0 0 0.064593301435
          0.10905730129 0.10491803279 0.036858974359 0.034023668639 0.10491803279 0.10905730129
          0.064593301435 0 0 0.070588235294 0.15523465704 0.16506410256
          0.12283464567 0.11271676301 0.16506410256 0.15523465704 0.070588235294 0
          0 0.081896551724 0.19333333333 0.25443786982 0.33959537572 0.38985313752
          0.25443786982 0.19333333333 0.081896551724 0 0 0.093301435407
          0.24768946396 0.35573770492 0.41987179487 0.46449704142 0.35573770492 0.24768946396
          0.093301435407 0 0 0.10781671159 0.30833333333 0.39556377079
          0.4440433213 0.48666666667 0.39556377079 0.30833333333 0.10781671159 0
          0 0.16197183099 0.35579514825 0.43062200957 0.44470588235 0.49137931034
          0.43062200957 0.35579514825 0.16197183099 0 0 0.16101694915
          0.3538961039 0.42939481268 0.4447592068 0.49090909091 0.42939481268 0.3538961039
          0.16101694915 0 0 0 0 0
          0 0 0 0 0 0
          0 0.027906976744 0 0 0 0
          0 0 0.027906976744 0 0 0.056338028169
          0.072776280323 0.040669856459 0.014117647059 0.012931034483 0.040669856459 0.072776280323
          0.056338028169 0 0 0.06875 0.11483253589 0.10828025478
          0.0375782881 0.034416826004 0.10828025478 0.11483253589 0.06875 0
          0 0.074303405573 0.16235294118 0.16910229645 0.12371134021 0.11257035647
          0.16910229645 0.16235294118 0.074303405573 0 0 0.084269662921
          0.20043103448 0.25812619503 0.33771106942 0.39242685026 0.25812619503 0.20043103448
          0.084269662921 0 0 0.09375 0.25358851675 0.36093418259
          0.41962421712 0.46845124283 0.36093418259 0.25358851675 0.09375 0
          0 0.10563380282 0.3153638814 0.4019138756 0.44470588235 0.49137931034
          0.4019138756 0.3153638814 0.10563380282 0 0 0.16744186047
          0.36971830986 0.440625 0.44582043344 0.49719101124 0.440625 0.36971830986
          0.16744186047 0 0 0.16759776536 0.3686440678 0.43984962406
          0.44609665428 0.49662162162 0.43984962406 0.3686440678 0.16759776536 0
          0 0 0 0 0 0
          0 0 0 0 0 0.027932960894
          0 0 0 0 0 0
          0.027932960894 0 0 0.055084745763 0.071428571429 0.040345821326
          0.014164305949 0.012987012987 0.040345821326 0.071428571429 0.055084745763 0
          0 0.067669172932 0.11239193084 0.1074168798 0.037688442211 0.034562211982
          0.1074168798 0.11239193084 0.067669172932 0 0 0.074349442379
          0.16147308782 0.16834170854 0.12376237624 0.11286681716 0.16834170854 0.16147308782
          0.074349442379 0 0 0.084459459459 0.2 0.25806451613
          0.33860045147 0.39211618257 0.25806451613 0.2 0.084459459459 0
          0 0.093984962406 0.25360230548 0.36061381074 0.41959798995 0.46774193548
          0.36061381074 0.25360230548 0.093984962406 0 0 0.10593220339
          0.31493506494 0.40057636888 0.4447592068 0.49090909091 0.40057636888 0.31493506494
          0.10593220339 0 0 0.16759776536 0.3686440678 0.43984962406
          0.44609665428 0.49662162162 0.43984962406 0.3686440678 0.16759776536 0
          0 0.1677852349 0.36734693878 0.43891402715 0.44642857143 0.49593495935
          0.43891402715 0.36734693878 0.1677852349 0
        </DataArray>
        <DataArray type="Float64" Name="Displacement" NumberOfComponents="3" format="ascii" RangeMin="1.3610314495" RangeMax="1.3762191001">
          -0.0075214862931 1.364482046 -0.019898889037 -0.0076245621186 1.3682272996 -0.02185945909
          -0.0077321244103 1.3633420571 -0.017845762053 -0.0079505066219 1.3634668808 -0.018495282548
          -0.0078063166407 1.3622702686 -0.017801531368 -0.0076333507186 1.3613864213 -0.017431819215
          -0.0073942938017 1.362305939 -0.018341771625 -0.007718581264 1.3614303428 -0.017825539649
          -0.0076966659796 1.3655330895 -0.021758211452 -0.0078792637403 1.360871654 -0.019955539591
          -0.0062910645357 1.366085199 -0.021283569851 -0.007729645592 1.3640889365 -0.019185779475
          -0.0073751847188 1.3648540088 -0.019326632888 -0.0078545880272 1.3661146739 -0.020521510128
          -0.0075337598437 1.3653899051 -0.02044069905 -0.007485596838 1.3647809596 -0.020577258939
          -0.0066640761359 1.3647785492 -0.020282676743 -0.0071833658957 1.3630084715 -0.019352887945
          -0.0068273778719 1.3614851071 -0.019076338156 -0.0083217369846 1.3626832989 -0.021204353825
          -0.0064858618921 1.3666419332 -0.021416976806 -0.0078675176019 1.3660139615 -0.019382509701
          -0.006811719608 1.3650188125 -0.020260799347 -0.0072969055013 1.3649121957 -0.019937194785
          -0.0070066928919 1.3637149353 -0.019495630152 -0.006808039515 1.3629094543 -0.018866298499
          -0.0065323850477 1.3636292886 -0.019892486228 -0.0069662559897 1.3630739528 -0.020193764801
          -0.0060711495355 1.3633228044 -0.019341226091 -0.0074739254952 1.3630892996 -0.021365246266
          -0.0055384821596 1.3658701687 -0.021372735091 -0.0070012801917 1.3653760563 -0.021004077811
          -0.0066831849425 1.3660569674 -0.021152046229 -0.0062601910149 1.3647117782 -0.020860662632
          -0.00665569517 1.3644487303 -0.02077892963 -0.0063882544162 1.3642481098 -0.020809059061
          -0.0066339820287 1.3632782037 -0.020595153564 -0.006328541166 1.3641177319 -0.021103038308
          -0.006062190748 1.3626333594 -0.020936337712 -0.0075676096083 1.3623745938 -0.021297786526
          -0.0057029669659 1.3668968811 -0.021454710048 -0.0063342830633 1.3663920465 -0.020971754155
          -0.0058498150812 1.3655244487 -0.021543320406 -0.0066129826374 1.3648302993 -0.021379218996
          -0.0058755222049 1.3648296942 -0.021666363698 -0.0066261509382 1.3647542426 -0.021303378324
          -0.0057622005655 1.3637141051 -0.021379445176 -0.006396934951 1.36356475 -0.021520249244
          -0.0059649234823 1.3636617565 -0.020891614897 -0.0066661967522 1.3633767005 -0.02141165261
          -0.0051725491801 1.3659903061 -0.022042680894 -0.0061941759231 1.3660329577 -0.021877155619
          -0.0057418225279 1.365964729 -0.021234136859 -0.0058068099269 1.365285764 -0.021691843466
          -0.0079793632783 1.3637748787 -0.024619877608 -0.0033740274726 1.3636133788 -0.024597494736
          -0.0056734460856 1.3640431097 -0.021630877949 -0.0057686227538 1.3640164634 -0.021212125281
          -0.0053306160854 1.3633889922 -0.021794728825 -0.0063630741824 1.3625655167 -0.021991110546
          -0.0042633473777 1.3665347643 -0.022818864443 -0.004409333579 1.3663239813 -0.022896493604
          -0.004828248846 1.3655673326 -0.022706832943 -0.0045986401886 1.3647818935 -0.022851770641
          -0.0053039003464 1.3638114999 -0.023460687897 -0.0055472415704 1.3634395641 -0.023493318346
          -0.0061441535398 1.3636107272 -0.022836002939 -0.0059141217877 1.363558357 -0.022613624486
          -0.0063930750908 1.3636346046 -0.022886276544 -0.0065502481675 1.3630355427 -0.022857314949
          -0.0027541760769 1.3649064599 -0.025396483753 -0.0022637515246 1.3658700681 -0.024594654256
          -0.002986812249 1.3659153199 -0.022492016215 -0.0041116474181 1.3652456459 -0.022163926734
          -0.0018260126336 1.3654135788 -0.019405146414 -0.0081187148928 1.3650924551 -0.019444507097
          -0.0059473631626 1.3641840691 -0.022113486725 -0.007020202379 1.3640541256 -0.022489704926
          -0.0075581180998 1.3632448792 -0.024456050859 -0.0070885871621 1.3613481499 -0.025294340378
          0.0013413572388 1.3692795246 -0.027339822696 -0.0040815219666 1.3650065481 -0.023861837055
          -0.0077218196261 1.3655947489 -0.022666587314 -0.0041338512367 1.3625768967 -0.025408475993
          -0.00552272767 1.3623649212 -0.024126466261 -0.0037015071913 1.3619750529 -0.024204056879
          -0.0049588152152 1.361348049 -0.025490441363 -0.0013687083097 1.3636449084 -0.022612464855
          -0.0050542681804 1.3622830088 -0.023765204639 -0.010669368757 1.3658046459 -0.027468382246
          -0.0033000809029 1.3679659538 -0.022232314718 -0.0063456711877 1.3714550187 -0.018290626085
          -0.0013124050778 1.3654230062 -0.024058473366 -0.0042759590933 1.361943232 -0.02700487907
          -0.013777799968 1.3622724707 -0.031424979237 0.0055319286246 1.3618092098 -0.031458636423
          -0.004031851772 1.3607575446 -0.027004734534 -0.0070397911242 1.3636099299 -0.023885119726
          -0.0017676388056 1.3688405987 -0.017911093509 -0.0052819861649 1.3641632594 -0.022630751423
          -0.0073060150183 1.3668554954 -0.019581921477 -0.00759304942 1.3671034091 -0.020620777876
          -0.0080289818479 1.3653067325 -0.018241385798 -0.0079932982941 1.3664710769 -0.019915614663
          -0.0078541054351 1.3657349405 -0.020195929615 -0.0077120555437 1.3654508552 -0.02005692023
          -0.0072943243534 1.3651900098 -0.01963337706 -0.0073206577017 1.3634129109 -0.018283923646
          -0.0077644027281 1.364499462 -0.020668854921 -0.0080983471118 1.3633862869 -0.019490167372
          -0.0085545862634 1.3666406979 -0.018327517975 -0.0075577094379 1.3663045183 -0.019076363018
          -0.0074815818695 1.3662508567 -0.019961786301 -0.0074386867744 1.3655819771 -0.019835019454
          -0.0073752246677 1.365592586 -0.020356957368 -0.007258130189 1.364874938 -0.020037657896
          -0.00720861436 1.3645638707 -0.019982241629 -0.0070958824728 1.3643471259 -0.019924390457
          -0.007053350333 1.3635631621 -0.01893700988 -0.0059912430684 1.3632518029 -0.018205472578
          -0.0071973586239 1.3667978612 -0.020131423038 -0.0072031201665 1.3666541907 -0.020177251238
          -0.0072050057252 1.3657733704 -0.019995167843 -0.0068635605057 1.3655625896 -0.020474647698
          -0.0069497587937 1.3651458215 -0.020298043737 -0.0068626870512 1.3647335245 -0.020221295973
          -0.0069615553351 1.3643116884 -0.020388179441 -0.0066928184251 1.3638524261 -0.020050195658
          -0.0066240416624 1.3639543743 -0.020145783733 -0.0067062408065 1.3633300105 -0.020071915855
          -0.0070786980179 1.3674717081 -0.020823278177 -0.0066969535369 1.3665475154 -0.020607164193
          -0.0062297772166 1.366181758 -0.021227520077 -0.0068747340315 1.3651987802 -0.020151030419
          -0.0065537513478 1.365171234 -0.020999780897 -0.0065281967994 1.3648057368 -0.021055347826
          -0.0061673760046 1.3640128902 -0.020130091696 -0.0067860078168 1.3641992897 -0.021111441298
          -0.0063689932629 1.3638228036 -0.020553854229 -0.0060328689458 1.3640245547 -0.020676310687
          -0.0057172138944 1.3657382412 -0.020897404008 -0.0062566415487 1.3667098638 -0.021085910869
          -0.0058739878805 1.3659891345 -0.021532033409 -0.0059265028376 1.3656153851 -0.021783493111
          -0.0062032320965 1.3649583793 -0.021723908078 -0.0060478151341 1.3645632365 -0.021713191385
          -0.006347819166 1.3644503668 -0.021743637477 -0.0063847134921 1.3640176376 -0.02151723987
          -0.0059943606529 1.3640277012 -0.021063885639 -0.0065410099223 1.3622790221 -0.020802253546
          -0.0051244486264 1.3671763852 -0.022149154784 -0.0055540173152 1.3664723536 -0.02198504564
          -0.0060931392423 1.3660577665 -0.021374095959 -0.0052509343412 1.3657289635 -0.021763928166
          -0.0055494793534 1.3651156759 -0.021800727349 -0.005923572805 1.3647438136 -0.021771622899
          -0.0062129269377 1.3645584002 -0.021801457129 -0.0053997317576 1.364118172 -0.021341220598
          -0.0059340239252 1.3637439824 -0.02194032865 -0.0063807115742 1.3636720218 -0.022051910225
          -0.0045330955047 1.367370896 -0.022799245774 -0.0046005273405 1.3667850362 -0.022081539802
          -0.0037014134872 1.3664577773 -0.022186005354 -0.0052082965627 1.3656221507 -0.022296525116
          -0.0041949340342 1.3650251474 -0.021531803306 -0.0065105495872 1.3646575111 -0.021519682963
          -0.0055299600091 1.3644656889 -0.022269127724 -0.0069761107589 1.3645382703 -0.0221865318
          -0.0061154719404 1.3640575652 -0.022031809693 -0.0062225801711 1.3638471351 -0.022750498055
          -0.0062928695967 1.3659619357 -0.02144518756 -0.0042672364992 1.3668500346 -0.022603664245
          -0.0042645099068 1.3661509418 -0.023059827789 -0.0042436230395 1.365572559 -0.022395087174
          -0.0038960211516 1.3650738989 -0.021914559777 -0.0061300228153 1.3646717697 -0.021891946146
          -0.005698850389 1.3644153077 -0.022388196927 -0.0057892241276 1.3642359047 -0.023057559928
          -0.0056353511456 1.3641508481 -0.022544938707 -0.0035928022319 1.3624828509 -0.021371480873
          -0.0051116775091 1.3655544144 -0.024869918795 -0.0046697371918 1.3661936622 -0.023629859465
          -0.0043054563278 1.3663798628 -0.02342409674 -0.0038268014987 1.3665411152 -0.022556482363
          -0.0045342898919 1.3657582272 -0.023702313188 -0.0045911928742 1.3654571281 -0.02373725087
          -0.0053461479273 1.3654155497 -0.022554906198 -0.0048862087097 1.3644565712 -0.023434842787
          -0.0044770775665 1.3634815062 -0.023568429859 -0.0039675819712 1.362040133 -0.024735002841
          -0.0044181634889 1.3650292558 -0.025070819299 -0.0048499305271 1.3659204652 -0.023799763638
          -0.0076680852564 1.3642462713 -0.02504489587 -0.0046710648309 1.3641316963 -0.025574361081
          -0.00033269529791 1.3642132545 -0.023458362518 -0.007959603339 1.3640129542 -0.023380653814
          -0.0036916990573 1.3628914244 -0.0256744578 -0.0007029029057 1.3622965846 -0.025047938957
          -0.0035241513964 1.3632108327 -0.023751887199 -0.003812793956 1.3613733007 -0.025024963646
          -0.0085359188908 1.3683657919 -0.018984283633 -0.0073816047351 1.3667111529 -0.019393039137
          -0.0077490841504 1.3665917255 -0.019363743477 -0.0076641541747 1.3655605743 -0.018378434532
          -0.0077088174207 1.3660921022 -0.019475525949 -0.0077926629035 1.3653942738 -0.019124033155
          -0.007751168822 1.364348173 -0.018313339231 -0.0076510898029 1.3646042012 -0.019304599477
          -0.0080497593672 1.3639503165 -0.01928534109 -0.006881120701 1.364810562 -0.018930736625
          -0.0070274423595 1.3671234389 -0.019867612294 -0.0074400829595 1.3675033365 -0.019920960567
          -0.007168598131 1.366553417 -0.019833496952 -0.0073111378482 1.3663505371 -0.019898465315
          -0.0073454717175 1.3658964227 -0.0198906662 -0.0073030578895 1.3654431984 -0.019773540841
          -0.0073263253827 1.3651272691 -0.019852225751 -0.0074547389391 1.3646253443 -0.019800866258
          -0.0071324913167 1.3647995542 -0.019861347836 -0.0076223336665 1.3635447997 -0.019816615323
          -0.0071777405676 1.367468392 -0.020076574773 -0.007344056091 1.3674035676 -0.019977609381
          -0.0070510195476 1.3666053668 -0.020096233119 -0.0069602626671 1.3660362474 -0.020213796459
          -0.0069301318584 1.3655765805 -0.020168113144 -0.0068318649419 1.3650922199 -0.020227293475
          -0.0068875492428 1.3648710643 -0.020169972337 -0.0068326382956 1.3646660488 -0.020094019582
          -0.006557859345 1.3646586925 -0.019928478348 -0.0066533106922 1.3639780224 -0.020004142218
          -0.0063040200419 1.3674036817 -0.020687907328 -0.0064015738243 1.3671651286 -0.020780692223
          -0.0065061305589 1.3665977963 -0.020753163847 -0.006548793254 1.3660655479 -0.020759124295
          -0.0065159591514 1.3656670503 -0.020783831897 -0.006569851633 1.3652371169 -0.020729818074
          -0.0065500631699 1.3649002227 -0.020736757467 -0.0065669320828 1.3646583406 -0.020724031693
          -0.0066358961867 1.3644450696 -0.020707508472 -0.0067890435267 1.3638783576 -0.020661833141
          -0.0056997024672 1.3677446892 -0.021535347174 -0.005956348483 1.3671305503 -0.021197335169
          -0.0057334155777 1.3666545776 -0.021406941041 -0.0059513296152 1.3661286301 -0.02136434541
          -0.0061758351763 1.3655203439 -0.021374515209 -0.0061410597504 1.3651886496 -0.021375432811
          -0.0063675564223 1.3649453509 -0.021337011569 -0.0065454575274 1.3647230225 -0.021368145133
          -0.0063396259624 1.3644067536 -0.021142531549 -0.0065614181544 1.3642463883 -0.021458606753
          -0.0049848431689 1.3676757084 -0.022314744605 -0.005163761651 1.3670491639 -0.021941324416
          -0.0052093738957 1.366702041 -0.021858617969 -0.00534407018 1.3663082956 -0.021809353073
          -0.0055715000069 1.3657137805 -0.021776372065 -0.0059462111604 1.3653232642 -0.021791067205
          -0.0061958790115 1.365231324 -0.021806665208 -0.0062768667339 1.3647824688 -0.021820095264
          -0.0063814601463 1.3643353579 -0.02192192243 -0.0065280923622 1.3641986239 -0.022266520177
          -0.0042666239494 1.3677575596 -0.022859786162 -0.0053216031737 1.367068032 -0.021960829864
          -0.0053124037663 1.3665010519 -0.02219614649 -0.0044756796219 1.3661037087 -0.022307974171
          -0.0049190272424 1.365932424 -0.021955621133 -0.0058475165022 1.3655175651 -0.021958429629
          -0.0062275202156 1.3649640282 -0.022253122429 -0.0054403128293 1.3645475847 -0.022168566694
          -0.0053901872015 1.364364855 -0.0218975998 -0.0064907250764 1.3642705427 -0.022834969084
          -0.0042612690049 1.3671813043 -0.023188754571 -0.0045640410231 1.3666975775 -0.023160287297
          -0.0039668475124 1.3666211112 -0.022803986704 -0.0046488904175 1.3659813743 -0.023186910575
          -0.0046198155795 1.366137242 -0.022469494818 -0.0053885567981 1.3657638967 -0.022493498351
          -0.0053289999796 1.3648459383 -0.023144488687 -0.005969141212 1.3646943813 -0.02277845128
          -0.0054038891331 1.3639845782 -0.023129541502 -0.0056366340092 1.3636448629 -0.023111616349
          -0.0030275768491 1.3680236392 -0.024075536196 -0.0043069314719 1.3668008276 -0.023127773255
          -0.0051141906196 1.3673085744 -0.022924324294 -0.0055145913107 1.3675219487 -0.023094058979
          -0.0054890329687 1.3669165059 -0.023296651155 -0.0037047570541 1.3665390662 -0.023339652017
          -0.0037501052207 1.3663768552 -0.023044685329 -0.0041146239755 1.3654033053 -0.022875555934
          -0.0048638327618 1.3641083084 -0.02305841244 -0.0062008073039 1.364639911 -0.023964165622
          0.0015952859002 1.3721119628 -0.024099689345 -0.0052786597216 1.3658774137 -0.024082099514
          -0.0077607180697 1.3660678507 -0.02521951316 -0.0086035443709 1.3678952554 -0.02386637358
          -0.0038226088427 1.3676241817 -0.023134366018 -0.0043717110707 1.3673894546 -0.023151830559
          0.00026034526769 1.3667343285 -0.023834981451 -0.00062366610278 1.3641188492 -0.025143773334
          -0.0031753437439 1.3631728853 -0.02399915344 -0.0098444408153 1.3686138595 -0.024043640277
          -0.0091318188004 1.3702939053 -0.018766636415 -0.0080998477715 1.3677822597 -0.018578682231
          -0.007725553486 1.3670087987 -0.01887798594 -0.007557847848 1.366591933 -0.019185082593
          -0.007735155654 1.3666844162 -0.019433834904 -0.0077722833365 1.3662217919 -0.019442082887
          -0.0078459278235 1.3654102591 -0.019117111967 -0.0076715763913 1.3650300184 -0.018880620397
          -0.0072338085328 1.3650567729 -0.018543034792 -0.0062574250534 1.3667268012 -0.018707395014
          -0.0076991524542 1.3682150075 -0.019399927907 -0.0068663971572 1.3675231642 -0.019953579732
          -0.0071884272456 1.3669839017 -0.019668781441 -0.0072905453317 1.3665856232 -0.019631843916
          -0.0073262753685 1.3662144944 -0.019654591218 -0.0073301785198 1.3657782115 -0.01959991534
          -0.0073520517655 1.3654279793 -0.019606775884 -0.0074419454572 1.3650034789 -0.019660172875
          -0.0077594401377 1.3647883245 -0.019883847131 -0.0069289542755 1.3647696483 -0.019278290625
          -0.0067733129581 1.3678975311 -0.020056186009 -0.006421670866 1.3673534915 -0.020196842071
          -0.006823238117 1.3670502632 -0.020159298975 -0.0068964478128 1.3665521592 -0.020278865289
          -0.0069379291327 1.3660414999 -0.020243011412 -0.0069695212682 1.3656784172 -0.020193792072
          -0.0069733044696 1.3654043128 -0.020210716578 -0.0070257610276 1.3651057186 -0.020151656079
          -0.0074065827484 1.3646570341 -0.020169299618 -0.0070987275283 1.3643304338 -0.020021392586
          -0.0064080281345 1.3683623246 -0.020837467945 -0.0063129376059 1.3675835 -0.020747762712
          -0.0064529162898 1.3671002544 -0.020789373875 -0.0065527714421 1.3666508622 -0.020682508786
          -0.0064530632011 1.3661810645 -0.020842193674 -0.0065473282046 1.3656891955 -0.020793690836
          -0.0065103557029 1.3655034456 -0.020665143591 -0.0066504377269 1.3651835055 -0.020738014387
          -0.006742408792 1.3648819789 -0.020701040011 -0.0066159457429 1.3648972599 -0.020759866626
          -0.0057824419515 1.3678231073 -0.021250136591 -0.0057327022759 1.3675954808 -0.021327887495
          -0.0058606920621 1.3672488456 -0.021353692051 -0.0059676509522 1.3665886995 -0.021381375611
          -0.0060897114187 1.3661142304 -0.021300753491 -0.0061540091072 1.3657648847 -0.021327985537
          -0.0063179129908 1.3654759453 -0.021305470841 -0.0064706930897 1.3653016748 -0.021287963835
          -0.0065720679832 1.3648833402 -0.02128217266 -0.0065303606971 1.3643560218 -0.021208757948