<?xml version="1.0"?>
<VTKFile type="UnstructuredGrid" version="0.1" byte_order="LittleEndian" compressor="vtkZLibDataCompressor">
  <UnstructuredGrid>
    <FieldData>
      <DataArray type="Float64" Name="TIME" NumberOfTuples="1" format="ascii" RangeMin="0.2100318501" RangeMax="0.2100318501">
        0.2100318501
      </DataArray>
    </FieldData>
    <Piece NumberOfPoints="1000" NumberOfCells="0">
      <PointData>
        <DataArray type="Float64" Name="Damage" format="ascii" RangeMin="0" RangeMax="0.49719101124">
          0 0 0 0 0 0
          0 0 0 0 0 0.027932960894
          0 0 0 0 0 0
          0.027932960894 0 0 0.055084745763 0.071428571429 0.040345821326
          0.014164305949 0.012987012987 0.040345821326 0.071428571429 0.055084745763 0
          0 0.067669172932 0.11239193084 0.1074168798 0.037688442211 0.034562211982
          0.1074168798 0.11239193084 0.067669172932 0 0 0.074349442379
          0.16147308782 0.16834170854 0.12376237624 0.11286681716 0.16834170854 0.16147308782
          0.074349442379 0 0 0.084459459459 0.2 0.25806451613
          0.33860045147 0.39211618257 0.25806451613 0.2 0.084459459459 0
          0 0.093984962406 0.25360230548 0.36061381074 0.41959798995 0.46774193548
          0.36061381074 0.25360230548 0.093984962406 0 0 0.10593220339
          0.31493506494 0.40057636888 0.4447592068 0.49090909091 0.40057636888 0.31493506494
          0.10593220339 0 0 0.16759776536 0.3686440678 0.43984962406
          0.44609665428 0.49662162162 0.43984962406 0.3686440678 0.16759776536 0
          0 0.1677852349 0.36734693878 0.43891402715 0.44642857143 0.49593495935
          0.43891402715 0.36734693878 0.1677852349 0 0 0
          0 0 0 0 0 0
          0 0 0 0.027906976744 0 0
          0 0 0 0 0.027906976744 0
          0 0.056338028169 0.072776280323 0.040669856459 0.014117647059 0.012931034483
          0.040669856459 0.072776280323 0.056338028169 0 0 0.06875
          0.11483253589 0.10828025478 0.0375782881 0.034416826004 0.10828025478 0.11483253589
          0.06875 0 0 0.074303405573 0.16235294118 0.16910229645
          0.12371134021 0.11257035647 0.16910229645 0.16235294118 0.074303405573 0
          0 0.084269662921 0.20043103448 0.25812619503 0.33771106942 0.39242685026
          0.25812619503 0.20043103448 0.084269662921 0 0 0.09375
          0.25358851675 0.36093418259 0.41962421712 0.46845124283 0.36093418259 0.25358851675
          0.09375 0 0 0.10563380282 0.3153638814 0.4019138756
          0.44470588235 0.49137931034 0.4019138756 0.3153638814 0.10563380282 0
          0 0.16744186047 0.36971830986 0.440625 0.44582043344 0.49719101124
          0.440625 0.36971830986 0.16744186047 0 0 0.16759776536
          0.3686440678 0.43984962406 0.44609665428 0.49662162162 0.43984962406 0.3686440678
          0.16759776536 0 0 0 0 0
          0 0 0 0 0 0
          0 0.024647887324 0 0 0 0
          0 0 0.024647887324 0 0 0.051212938005
          0.06875 0.038817005545 0.012635379061 0.011666666667 0.038817005545 0.06875
          0.051212938005 0 0 0.064593301435 0.10905730129 0.10491803279
          0.036858974359 0.034023668639 0.10491803279 0.10905730129 0.064593301435 0
          0 0.070588235294 0.15523465704 0.16506410256 0.12283464567 0.11271676301
          0.16506410256 0.15523465704 0.070588235294 0 0 0.081896551724
          0.19333333333 0.25443786982 0.33959537572 0.38985313752 0.25443786982 0.19333333333
          0.081896551724 0 0 0.093301435407 0.24768946396 0.35573770492
          0.41987179487 0.46449704142 0.35573770492 0.24768946396 0.093301435407 0
          0 0.10781671159 0.30833333333 0.39556377079 0.4440433213 0.48666666667
          0.39556377079 0.30833333333 0.10781671159 0 0 0.16197183099
          0.35579514825 0.43062200957 0.44470588235 0.49137931034 0.43062200957 0.35579514825
          0.16197183099 0 0 0.16101694915 0.3538961039 0.42939481268
          0.4447592068 0.49090909091 0.42939481268 0.3538961039 0.16101694915 0
          0 0 0 0 0 0
          0 0 0 0 0 0.025
          0 0 0 0 0 0
          0.025 0 0 0.05023923445 0.068391866913 0.039344262295
          0.012820512821 0.011834319527 0.039344262295 0.068391866913 0.05023923445 0
          0 0.063694267516 0.10819672131 0.10465116279 0.036984352774 0.034120734908
          0.10465116279 0.10819672131 0.063694267516 0 0 0.070981210856
          0.15544871795 0.16500711238 0.12290502793 0.11282051282 0.16500711238 0.15544871795
          0.070981210856 0 0 0.082217973231 0.19378698225 0.25459317585
          0.33974358974 0.38981042654 0.25459317585 0.19378698225 0.082217973231 0
          0 0.093418259023 0.24918032787 0.35610465116 0.41963015647 0.46456692913
          0.35610465116 0.24918032787 0.093418259023 0 0 0.10765550239
          0.30868761553 0.39508196721 0.44391025641 0.48668639053 0.39508196721 0.30868761553
          0.10765550239 0 0 0.1625 0.35645933014 0.43099787686
          0.44467640919 0.4913957935 0.43099787686 0.35645933014 0.1625 0
          0 0.16165413534 0.35446685879 0.42966751918 0.44472361809 0.49078341014
          0.42966751918 0.35446685879 0.16165413534 0 0 0
          0 0 0 0 0 0
          0 0 0 0.02786377709 0 0
          0 0 0 0 0.02786377709 0
          0 0.054117647059 0.070397111913 0.040064102564 0.014173228346 0.013005780347
          0.040064102564 0.070397111913 0.054117647059 0 0 0.066805845511
          0.11057692308 0.106685633 0.037709497207 0.034615384615 0.106685633 0.11057692308
          0.066805845511 0 0 0.074226804124 0.16062992126 0.16759776536
          0.12362637363 0.11292346299 0.16759776536 0.16062992126 0.074226804124 0
          0 0.084427767355 0.19942196532 0.25769230769 0.33877038896 0.39145496536
          0.25769230769 0.19942196532 0.084427767355 0 0 0.093945720251
          0.25320512821 0.35988620199 0.41899441341 0.46666666667 0.35988620199 0.25320512821
          0.093945720251 0 0 0.10588235294 0.31407942238 0.39903846154
          0.44409448819 0.48988439306 0.39903846154 0.31407942238 0.10588235294 0
          0 0.16718266254 0.36705882353 0.43841336117 0.44536082474 0.49530956848
          0.43841336117 0.36705882353 0.16718266254 0 0 0.16728624535
          0.36543909348 0.43718592965 0.44554455446 0.49435665914 0.43718592965 0.36543909348
          0.16728624535 0 0 0 0 0
          0 0 0 0 0 0
          0 0.025280898876 0 0 0 0
          0 0 0.025280898876 0 0 0.049568965517
          0.066666666667 0.038461538462 0.013005780347 0.012016021362 0.038461538462 0.066666666667
          0.049568965517 0 0 0.06309751434 0.1050295858 0.10367454068
          0.037179487179 0.034360189573 0.10367454068 0.1050295858 0.06309751434 0
          0 0.071294559099 0.15462427746 0.1641025641 0.12296110414 0.11316397229
          0.1641025641 0.15462427746 0.071294559099 0 0 0.082616179002
          0.19359145527 0.25473933649 0.34064665127 0.38930481283 0.25473933649 0.19359145527
          0.082616179002 0 0 0.093690248566 0.24852071006 0.35564304462
          0.41923076923 0.46327014218 0.35564304462 0.24852071006 0.093690248566 0
          0 0.10775862069 0.30833333333 0.39349112426 0.4436416185 0.48598130841
          0.39349112426 0.30833333333 0.10775862069 0 0 0.16292134831
          0.35560344828 0.43021032505 0.44465290807 0.49053356282 0.43021032505 0.35560344828
          0.16292134831 0 0 0.16216216216 0.35324675325 0.42857142857
          0.44469525959 0.48962655602 0.42857142857 0.35324675325 0.16216216216 0
          0 0 0 0 0 0
          0 0 0 0 0 0.025
          0 0 0 0 0 0
          0.025 0 0 0.05023923445 0.068391866913 0.039344262295
          0.012820512821 0.011834319527 0.039344262295 0.068391866913 0.05023923445 0
          0 0.063694267516 0.10819672131 0.10465116279 0.036984352774 0.034120734908
          0.10465116279 0.10819672131 0.063694267516 0 0 0.070981210856
          0.15544871795 0.16500711238 0.12290502793 0.11282051282 0.16500711238 0.15544871795
          0.070981210856 0 0 0.082217973231 0.19378698225 0.25459317585
          0.33974358974 0.38981042654 0.25459317585 0.19378698225 0.082217973231 0
          0 0.093418259023 0.24918032787 0.35610465116 0.41963015647 0.46456692913
          0.35610465116 0.24918032787 0.093418259023 0 0 0.10765550239
          0.30868761553 0.39508196721 0.44391025641 0.48668639053 0.39508196721 0.30868761553
          0.10765550239 0 0 0.1625 0.35645933014 0.43099787686
          0.44467640919 0.4913957935 0.43099787686 0.35645933014 0.1625 0
          0 0.16165413534 0.35446685879 0.42966751918 0.44472361809 0.49078341014
          0.42966751918 0.35446685879 0.16165413534 0 0 0
          0 0 0 0 0 0
          0 0 0 0.024647887324 0 0
          0 0 0 0 0.024647887324 0
          0 0.051212938005 0.06875 0.038817005545 0.012635379061 0.011666666667
          0.038817005545 0.06875 0.051212938005 0 0 0.064593301435
          0.10905730129 0.10491803279 0.036858974359 0.034023668639 0.10491803279 0.10905730129
          0.064593301435 0 0 0.070588235294 0.15523465704 0.16506410256
          0.12283464567 0.11271676301 0.16506410256 0.15523465704 0.070588235294 0
          0 0.081896551724 0.19333333333 0.25443786982 0.33959537572 0.38985313752
          0.25443786982 0.19333333333 0.081896551724 0 0 0.093301435407
          0.24768946396 0.35573770492 0.41987179487 0.46449704142 0.35573770492 0.24768946396
          0.093301435407 0 0 0.10781671159 0.30833333333 0.39556377079
          0.4440433213 0.48666666667 0.39556377079 0.30833333333 0.10781671159 0
          0 0.16197183099 0.35579514825 0.43062200957 0.44470588235 0.49137931034
          0.43062200957 0.35579514825 0.16197183099 0 0 0.16101694915
          0.3538961039 0.42939481268 0.4447592068 0.49090909091 0.42939481268 0.3538961039
          0.16101694915 0 0 0 0 0
          0 0 0 0 0 0
          0 0.027906976744 0 0 0 0
          0 0 0.027906976744 0 0 0.056338028169
          0.072776280323 0.040669856459 0.014117647059 0.012931034483 0.040669856459 0.072776280323
          0.056338028169 0 0 0.06875 0.11483253589 0.10828025478
          0.0375782881 0.034416826004 0.10828025478 0.11483253589 0.06875 0
          0 0.074303405573 0.16235294118 0.16910229645 0.12371134021 0.11257035647
          0.16910229645 0.16235294118 0.074303405573 0 0 0.084269662921
          0.20043103448 0.25812619503 0.33771106942 0.39242685026 0.25812619503 0.20043103448
          0.084269662921 0 0 0.09375 0.25358851675 0.36093418259
          0.41962421712 0.46845124283 0.36093418259 0.25358851675 0.09375 0
          0 0.10563380282 0.3153638814 0.4019138756 0.44470588235 0.49137931034
          0.4019138756 0.3153638814 0.10563380282 0 0 0.16744186047
          0.36971830986 0.440625 0.44582043344 0.49719101124 0.440625 0.36971830986
          0.16744186047 0 0 0.16759776536 0.3686440678 0.43984962406
          0.44609665428 0.49662162162 0.43984962406 0.3686440678 0.16759776536 0
          0 0 0 0 0 0
          0 0 0 0 0 0.027932960894
          0 0 0 0 0 0
          0.027932960894 0 0 0.055084745763 0.071428571429 0.040345821326
          0.014164305949 0.012987012987 0.040345821326 0.071428571429 0.055084745763 0
          0 0.067669172932 0.11239193084 0.1074168798 0.037688442211 0.034562211982
          0.1074168798 0.11239193084 0.067669172932 0 0 0.074349442379
          0.16147308782 0.16834170854 0.12376237624 0.11286681716 0.16834170854 0.16147308782
          0.074349442379 0 0 0.084459459459 0.2 0.25806451613
          0.33860045147 0.39211618257 0.25806451613 0.2 0.084459459459 0
          0 0.093984962406 0.25360230548 0.36061381074 0.41959798995 0.46774193548
          0.36061381074 0.25360230548 0.093984962406 0 0 0.10593220339
          0.31493506494 0.40057636888 0.4447592068 0.49090909091 0.40057636888 0.31493506494
          0.10593220339 0 0 0.16759776536 0.3686440678 0.43984962406
          0.44609665428 0.49662162162 0.43984962406 0.3686440678 0.16759776536 0
          0 0.1677852349 0.36734693878 0.43891402715 0.44642857143 0.49593495935
          0.43891402715 0.36734693878 0.1677852349 0
        </DataArray>
        <DataArray type="Float64" Name="Displacement" NumberOfComponents="3" format="ascii" RangeMin="1.9566215489" RangeMax="1.9687891959">
          -0.003976202667 1.9682133381 -0.0045642166226 -0.0012698133925 1.965778555 -0.0028949407866
          -0.00075823646949 1.9649977094 -0.002181042839 -0.0008325893216 1.9650742613 -0.0023658554109
          -0.00089314870289 1.9651052427 -0.0024118179739 -0.00086416401273 1.9650768928 -0.0024620779455
          -0.0007786363297 1.9649387051 -0.0023528028489 -0.00088205806954 1.9647563615 -0.0021661780965
          -0.00035383251384 1.9654673754 -0.0028644006157 0.0025063999686 1.9679130674 -0.0044845731691
          -0.00099975670906 1.9656220547 -0.0018270928742 -0.00032309067038 1.9656589273 -0.0023395693908
          -0.00075806920973 1.9643322977 -0.0015222494847 -0.0004348419053 1.9636421014 -0.001221617636
          -0.00071163771021 1.9635949534 -0.0010355705265 -0.00080397540725 1.9634945858 -0.0010144106366
          -0.0011022684796 1.9634683924 -0.0012004591217 -0.00075459419473 1.9640773604 -0.0014868864789
          -0.0012311569006 1.965317761 -0.0023274094565 -0.00048104662666 1.9652013713 -0.0017436062728
          -0.00015045518084 1.9644775303 -0.0016810244171 -0.0004317027361 1.9645707411 -0.0016769501318
          -0.00023192185006 1.9640623959 -0.0016318686943 -0.00076143972935 1.9641351132 -0.0015691168031
          -0.00070981376763 1.963939912 -0.0015922030508 -0.00064948113619 1.9638409581 -0.0015716865422
          -0.00065771604258 1.9639856604 -0.0015622835481 -0.0011848767178 1.9638132599 -0.0016106952043
          -0.0010080356622 1.9642240369 -0.00166439148 -0.001286076853 1.9640382985 -0.0016660356269
          8.3336428294e-05 1.9643626963 -0.0021097828861 -0.00053479181313 1.9639703251 -0.0013757561559
          -0.00043800725902 1.9642685462 -0.0015873919232 -0.00082508534587 1.9639140239 -0.0013009474705
          -0.00066780598651 1.963945152 -0.001521479372 -0.00057891933317 1.9638946383 -0.0015580391229
          -0.00049792778242 1.9637754138 -0.0013000714689 -0.00087846723018 1.9640339908 -0.0015754056383
          -0.00078860996159 1.9636372354 -0.0013665628686 -0.0014330626774 1.9639197449 -0.0021194925736
          0.00022026310934 1.9640269104 -0.0022809200761 -0.000648623219 1.9641362211 -0.001492922977
          -0.00056630848576 1.9644340105 -0.001482844752 -0.00086969743778 1.9640565441 -0.001502665299
          -0.00051745148333 1.9642638887 -0.0015695249835 -0.00065246024876 1.9642440709 -0.0015811395575
          -0.00036763273471 1.9639302466 -0.0014969026196 -0.00065303462967 1.9642018331 -0.0014677838891
          -0.00057207960797 1.9638117176 -0.0014839711805 -0.0014702120684 1.9635958712 -0.0023038344866
          0.00017338150367 1.9641143261 -0.0025246047078 -0.0006789413937 1.9640569647 -0.0017068170672
          -0.00057195194948 1.9640557521 -0.0017100587509 -0.00082518896591 1.963819927 -0.0018032565055
          -0.00087373471284 1.9636438171 -0.0021623518596 -0.00026945004308 1.963626491 -0.0021514620268
          -0.00030452457869 1.9636894904 -0.0018032132445 -0.00054312964278 1.9638175639 -0.0017030120565
          -0.00043961837974 1.9637243572 -0.0017011122671 -0.0013233614626 1.9636923437 -0.0025526487267
          -3.1699685608e-05 1.9638201159 -0.0026814327229 -0.00035102480703 1.9641429408 -0.0020957601133
          -0.00066693056681 1.9641740196 -0.0017455055591 -0.00070514566891 1.9640989149 -0.0018608315724
          -0.00084375117639 1.9637371872 -0.0024242368871 -0.00021781481926 1.9637260423 -0.0023891511482
          -0.00033142284238 1.9639748769 -0.001850073853 -0.00035468343522 1.9639418621 -0.0017395733554
          -0.00067996829124 1.9638187447 -0.0020937265859 -0.0010255498873 1.9634046621 -0.0027127223498
          -0.00066547403736 1.9629195508 -0.0030411873239 4.3253699093e-05 1.9638266162 -0.0029432816131
          -0.00059980581907 1.9638869034 -0.0025347421069 -0.00078643560431 1.9636600143 -0.0027986378457
          -0.0001808271435 1.9632423922 -0.0027484828035 -0.00078644393314 1.9632233438 -0.0027107016509
          -0.00015952493811 1.9635439465 -0.0027767880181 -0.00033785767593 1.9636721962 -0.0025189891728
          -0.0009972731305 1.9635175411 -0.0029412742766 -0.00030092995643 1.9625029676 -0.0030832878199
          -0.00046976853803 1.9633943792 -0.0041059702658 -0.0010555657118 1.961835723 -0.0049389131971
          -0.00019258782735 1.9622031557 -0.0050942307377 0.00023301189261 1.9617631607 -0.0050305295256
          0.00091103919806 1.9617094146 -0.0041039837394 -0.001795003756 1.9616440222 -0.0040972968673
          -0.0010970306175 1.9616295933 -0.0050305743482 -0.00066415440621 1.9619803569 -0.0051027227342
          0.00018941280809 1.9614937148 -0.0049854980179 -0.0003857406358 1.9628875899 -0.0042170081517
          -0.0022161358971 1.9573396715 -0.0083164704169 -0.0019158528402 1.9574308832 -0.0091322793431
          -0.0005512329788 1.9577141294 -0.0095402453222 0.0011337846995 1.9578774023 -0.0090131997751
          0.0021714336809 1.9576023176 -0.0075734290091 -0.003016391466 1.9575010502 -0.0075762346451
          -0.0019015789138 1.9576758144 -0.0090606345037 -0.00021075216351 1.9574021369 -0.0095807848259
          0.0011266103694 1.9569577364 -0.009240855549 0.0014722657782 1.9566022418 -0.0085665220638
          -0.0022495619277 1.9661293383 -0.0023369239702 -0.0015450824151 1.9656330052 -0.0028273575699
          -0.001066666261 1.9644375358 -0.0018128541209 -0.00070302758618 1.9638037474 -0.0012883745499
          -0.00085835538661 1.9636978581 -0.0011091902548 -0.000874287564 1.9636102116 -0.0010690698774
          -0.00094168478394 1.9636373898 -0.0012596428268 -0.00056829121716 1.964182865 -0.0017823475498
          -0.00010233628892 1.965297745 -0.0028127300186 0.00069275754532 1.9657954358 -0.0023045149343
          -0.00095959982382 1.9655596178 -0.0022330072684 -0.00088911186064 1.9642451932 -0.0014751558156
          -0.00055640348209 1.9643343796 -0.0021115499887 -0.00079929534787 1.9642365176 -0.0017683306449
          -0.00077139455848 1.9640839195 -0.0016160782629 -0.00075617929441 1.9639847939 -0.0015901274315
          -0.00074310789162 1.9640913334 -0.0017694867017 -0.00098720191539 1.9640820718 -0.0020979722233
          -0.00066158197841 1.9638817809 -0.0014429220534 -0.00059634187312 1.9651262233 -0.0022249022846
          -0.00082969672451 1.9647604434 -0.0016767789548 -0.00032857021378 1.9639846066 -0.0016202126334
          -0.00085081251801 1.9639805182 -0.0012328337373 -0.00076875530596 1.9639397518 -0.0013567063895
          -0.00073077374251 1.9639356947 -0.0014746896695 -0.00069929822075 1.9638958775 -0.0014893207544
          -0.00066701047029 1.9637936149 -0.0013463381828 -0.00058396661644 1.9637422438 -0.0012251320691
          -0.0010983375812 1.9636442144 -0.0016020180117 -0.00061565360347 1.9643101869 -0.0016655116097
          -0.0007782338425 1.9644194074 -0.001291932519 -0.00034028072052 1.964347604 -0.0017644591215
          -0.0008058179384 1.9641794491 -0.0013507417043 -0.00066933189777 1.9640974337 -0.0015689646849
          -0.00066050205997 1.9639819212 -0.0016455818748 -0.00064525996592 1.9639395841 -0.001650104454
          -0.00066201454701 1.9639506169 -0.0015725828042 -0.00052564600362 1.9639363642 -0.0013441816626
          -0.0009788726751 1.9640073731 -0.0017510465583 -0.00054551852587 1.9639935228 -0.0012875537824
          -0.00077083063251 1.9646342476 -0.0014483765687 -0.00043805868336 1.9644318259 -0.0018909644006
          -0.0006577281312 1.9641793917 -0.0014822901144 -0.00059911672304 1.9641952176 -0.0016367948889
          -0.00056818912342 1.9641144949 -0.0016483175772 -0.0006420503313 1.9640414396 -0.0016521471361
          -0.00063032112141 1.964060993 -0.0016378500273 -0.00057565914767 1.9639386327 -0.0014766223998
          -0.00077915487549 1.9640890343 -0.0018759712644 -0.00045089210612 1.9642098514 -0.0014422948755
          -0.00092299518927 1.9643341334 -0.0015818121918 -0.00046884113789 1.9642373604 -0.0020639020291
          -0.00066549259249 1.9641211068 -0.0018467337909 -0.00035182502266 1.9641520198 -0.0018748850274
          -0.00079144869351 1.9638575251 -0.0023351448272 -0.00034772292689 1.9638284662 -0.0023284961211
          -0.00078243089356 1.9640231562 -0.0018713025207 -0.00046801474825 1.9638865774 -0.0018442335941
          -0.00064482141512 1.9638986914 -0.0020498499248 -0.00019803530787 1.9638995899 -0.0015707274965
          -0.00059140042713 1.9646591273 -0.0018609186501 -0.00046147192735 1.9642974512 -0.00216033229
          -0.00056262160217 1.9641620913 -0.0020868993088 -0.00074698446515 1.9640044357 -0.002316055175
          -3.8925346966e-05 1.964014502 -0.0018418482707 -0.0009973607359 1.9639866264 -0.001827236132
          -0.00027561755087 1.9638692129 -0.0023167110962 -0.0004571357825 1.9639211127 -0.0020879999677
          -0.00054844049418 1.963955759 -0.0021510036365 -0.00043440766013 1.9642327978 -0.0018537996882
          -0.00024098214827 1.9641180298 -0.0030612958977 -0.00045440959917 1.9646909527 -0.0018977549519
          -0.00039275231144 1.9644026044 -0.0020185573276 -0.00056297196441 1.9643352843 -0.0020750651872
          -0.00035110413181 1.9642530276 -0.0023421452588 -0.00057508953762 1.9642342482 -0.002318313063
          -0.00035762670585 1.9642028667 -0.0020694466952 -0.00051801309881 1.96416284 -0.0020189341079
          -0.00045958775909 1.964356547 -0.0018889398912 -0.00070523717188 1.9637123173 -0.0030587677076
          -0.0011366825886 1.9620979502 -0.0041726077908 -0.00022128439113 1.9648898092 -0.002953677611
          -0.00041617924343 1.964978872 -0.0029120224018 -0.00029835578049 1.9647174543 -0.0030158753172
          -7.5258186274e-05 1.9635306289 -0.0035311137952 -0.00075319129716 1.9635123701 -0.003510022435
          -0.00051368400435 1.9645988494 -0.0029982612096 -0.00040143203993 1.9647506123 -0.0028907414797
          -0.00061880408558 1.9645916335 -0.0029277923201 0.00028209746834 1.9616882838 -0.004193507618
          -0.0027492881663 1.9591090484 -0.0034507685181 -4.4435447873e-05 1.9637601646 -0.0020633331211
          0.00060103492904 1.9653214476 -0.00070960964537 -0.0009922678585 1.9645522301 -0.001349874985
          0.0018745908452 1.9603039877 -0.0026254666756 -0.002625203174 1.9602392316 -0.0026531696956
          0.00028086712468 1.9644580309 -0.0013465553501 -0.0013448606765 1.9651657785 -0.00067955076566
          -0.00076759396574 1.9635853004 -0.0020233253632 0.0020167697409 1.9587211319 -0.003472240295
          -0.0014324758155 1.9649133192 -0.0020837316521 -0.0012915677927 1.9644545759 -0.0018990788275
          -0.0011740338605 1.9644256783 -0.0021879620714 -0.00094338159854 1.9640155995 -0.0019202399437
          -0.00086551471481 1.9638374161 -0.0017283292403 -0.00080646583582 1.9637733757 -0.0017266709385
          -0.00071420015249 1.9638702492 -0.0019343699558 -0.00046999494153 1.9641779817 -0.0021843307076
          -0.00036538929773 1.964099419 -0.0018784037605 -0.00019832484184 1.9645044244 -0.0020666516272
          -0.0010142808496 1.9645624106 -0.0018523596994 -0.0010454166393 1.964452336 -0.0018117661939
          -0.0006911509613 1.9637419026 -0.0015416266558 -0.00078948615479 1.9638178927 -0.001569952487
          -0.00080052859193 1.9638198575 -0.0015930295172 -0.00076029339199 1.9637812405 -0.001597993814
          -0.00075794026588 1.963665346 -0.0015632283894 -0.00085537609865 1.9634925531 -0.0015337181884
          -0.0005041020217 1.9641103963 -0.0018054038142 -0.0005334937139 1.9641164925 -0.0018279044711
          -0.00089393597199 1.9644780324 -0.0017944349145 -0.00059369633492 1.9642302193 -0.0018106110978
          -0.00077731015356 1.9641019444 -0.0016842434355 -0.00075367021159 1.9640619006 -0.0016913046012
          -0.00073722326348 1.9640239096 -0.0017293418829 -0.00073074203563 1.9639941057 -0.0017180869559
          -0.00068745842997 1.9639194307 -0.001683541133 -0.00066346636714 1.9638629413 -0.00167851044
          -0.00084849219207 1.9638905155 -0.0018035311731 -0.00053784749069 1.9640476861 -0.0017826017736
          -0.00069057783735 1.964581263 -0.0019438915743 -0.00082089938074 1.9644078155 -0.0017929560176
          -0.00071955945858 1.9642798927 -0.0017532823834 -0.00065733410971 1.9641863716 -0.0017934358753
          -0.00067945414057 1.9640544137 -0.0018667037264 -0.00064742017213 1.9640013596 -0.0018569484473
          -0.0006787007838 1.9640399804 -0.0017867127267 -0.00061972210638 1.9640379953 -0.001749547553
          -0.00051525010716 1.9640638006 -0.0017877404835 -0.00062907425795 1.9641455547 -0.0019279534634
          -0.00066822926133 1.9645796208 -0.0019017437164 -0.00071609743589 1.964392387 -0.0018069060082
          -0.00054210400327 1.9643031298 -0.0018423425237 -0.00052682534771 1.9642450919 -0.0018508500089
          -0.00062915174687 1.9641038957 -0.0018806710156 -0.00057411395406 1.9641064058 -0.0018647828412
          -0.00069807675001 1.9640983069 -0.0018488607725 -0.00069842238846 1.9640624261 -0.0018428114967
          -0.0005193750403 1.9640442568 -0.0018027221908 -0.00055464233581 1.9641364554 -0.0018869226035
          -0.00055870598143 1.964506741 -0.002176300964 -0.00076544303602 1.9644423137 -0.0018538132281
          -0.00052901755527 1.9643679358 -0.0019439451828 -0.00032931619743 1.964274243 -0.001953835654
          1.3798347231e-05 1.9642609012 -0.0016655414681 -0.0011473105797 1.9642261799 -0.0016557523188
          -0.00080670012669 1.9641410558 -0.0019427739774 -0.00060870973457 1.9641315472 -0.0019344145566
          -0.00036792721201 1.9641067906 -0.0018396640948 -0.00056744514124 1.9640683694 -0.0021576999125
          -0.00026758989874 1.9646493146 -0.0023730223782 -0.00069416021172 1.9643566111 -0.0021637261788
          -0.00057453241212 1.9643851002 -0.00217055584 -0.00023304804601 1.964294497 -0.0021532387756
          -0.00067273142176 1.964219272 -0.0023308558128 -0.00035497354496 1.9641840096 -0.0023230804208
          -0.00079198094811 1.9641603189 -0.0021454371197 -0.00044834283777 1.9641474951 -0.0021605928047
          -0.00032398708284 1.9640167622 -0.002151326051 -0.00075281964864 1.9642096647 -0.002358979677
          -0.00026592764364 1.964670965 -0.0021996522139 0.00017785637472 1.9647179542 -0.0025548975502
          -0.00037153232246 1.9643589813 -0.0025140539398 -0.00077134739832 1.9643129284 -0.0025410679468
          -0.0010625428712 1.9643884872 -0.0025167627863 0.00014311944255 1.9643567872 -0.0025073452347
          -0.00014863548964 1.964176897 -0.0025366334866 -0.00053355375711 1.9641225507 -0.0025109747964
          -0.001080365937 1.964374658 -0.0025460751349 -0.00066260233618 1.9642489421 -0.0021858516399
          -0.000116755483 1.9647408384 -0.0029932493199 -0.00040785275352 1.9646455072 -0.0026747960164
          -6.4028147323e-05 1.9647062725 -0.0024898458191 -0.00070769744763 1.9646971576 -0.0025826407323
          -0.0007655755895 1.9642900823 -0.0032617731573 -3.146159266e-05 1.9642780337 -0.0032383055348
          -0.0001130481395 1.9645461117 -0.0025681069876 -0.00075133441425 1.9644355139 -0.0024856821039
          -0.00041007345038 1.9643021311 -0.0026528611107 -0.000749425199 1.9643625163 -0.0029669385609
          -0.0045994294612 1.9610985064 -0.004875500862 0.001855532808 1.9671357384 -0.0029643967726
          0.0011437414087 1.9657576268 -0.002784717297 -0.0024221392581 1.9663369876 -0.002765973657
          0.0026059586853 1.9627434504 -0.0038818094523 -0.0033206029962 1.9627068773 -0.0038673983276
          0.0017003144789 1.9662023665 -0.0027945926568 -0.0019010969716 1.9655161782 -0.0028917402908
          -0.0027011125943 1.9669146001 -0.003057517845 0.0036933341127 1.9608740188 -0.0049317199451
          -0.0016638691158 1.9647568886 -0.0018649885034 -0.0010519646272 1.9642209337 -0.0019469730525
          -0.0010963348455 1.964023684 -0.0018608602037 -0.0008083839914 1.9637019491 -0.0016851547354
          -0.0008586207 1.9637292188 -0.001688062856 -0.00082141863698 1.9636963998 -0.0017019681139
          -0.00084938848258 1.9635437731 -0.0016849119114 -0.00054859787115 1.9637818523 -0.0018629131398
          -0.00062360949711 1.9638622303 -0.0019440936793 1.7608139487e-05 1.9643299839 -0.0018492165084
          -0.00089428879989 1.9643289995 -0.0019091336956 -0.00089515745582 1.9641322019 -0.0018283831357
          -0.00078136882711 1.9639661066 -0.0017692765066 -0.00084659798063 1.9639652324 -0.0018103605049
          -0.00082033519242 1.9639821202 -0.0018610185618 -0.00073610655038 1.9639254201 -0.0018597589311
          -0.0007013309249 1.9638149589 -0.0018057795918 -0.00076826291758 1.963718731 -0.0017651864886
          -0.00065236192579 1.9637974489 -0.0018232751546 -0.00066729876703 1.9638769812 -0.0018977729661
          -0.00079475104886 1.964388231 -0.0020079295952 -0.00079371290499 1.9643079127 -0.0018524993475
          -0.00079164512278 1.9642415984 -0.0018773959587 -0.00073457291443 1.9642174143 -0.0018530388513
          -0.00074380342602 1.9641757135 -0.0018568753865 -0.00071234454857 1.9641269419 -0.0018575248429
          -0.00070888157831 1.9640769695 -0.0018460811299 -0.00065398275626 1.9640044418 -0.0018714944286
          -0.00065343545502 1.9639683245 -0.0018471350259 -0.00063526427196 1.963964028 -0.0019992986085
          -0.00078939305032 1.9646004211 -0.0019626324973 -0.00074097931541 1.9644175802 -0.0019517745034
          -0.00070309312117 1.9643656618 -0.0019648349117 -0.0006946412822 1.964282982 -0.0020001216177
          -0.00068123722005 1.9642068629 -0.0019990022444 -0.00067494592343 1.9641630038 -0.0019876743766
          -0.00064500818497 1.9641381999 -0.0019939539168 -0.00064082166364 1.9641233277 -0.001960322487