<?xml version="1.0"?>
<VTKFile type="UnstructuredGrid" version="0.1" byte_order="LittleEndian" compressor="vtkZLibDataCompressor">
  <UnstructuredGrid>
    <FieldData>
      <DataArray type="Float64" Name="TIME" NumberOfTuples="1" format="ascii" RangeMin="0.315019188" RangeMax="0.315019188">
        0.315019188
      </DataArray>
    </FieldData>
    <Piece NumberOfPoints="1000" NumberOfCells="0">
      <PointData>
        <DataArray type="Float64" Name="Damage" format="ascii" RangeMin="0" RangeMax="0.49719101124">
          0 0 0 0 0 0
          0 0 0 0 0 0.027932960894
          0 0 0 0 0 0
          0.027932960894 0 0 0.055084745763 0.071428571429 0.040345821326
          0.014164305949 0.012987012987 0.040345821326 0.071428571429 0.055084745763 0
          0 0.067669172932 0.11239193084 0.1074168798 0.037688442211 0.034562211982
          0.1074168798 0.11239193084 0.067669172932 0 0 0.074349442379
          0.16147308782 0.16834170854 0.12376237624 0.11286681716 0.16834170854 0.16147308782
          0.074349442379 0 0 0.084459459459 0.2 0.25806451613
          0.33860045147 0.39211618257 0.25806451613 0.2 0.084459459459 0
          0 0.093984962406 0.25360230548 0.36061381074 0.41959798995 0.46774193548
          0.36061381074 0.25360230548 0.093984962406 0 0 0.10593220339
          0.31493506494 0.40057636888 0.4447592068 0.49090909091 0.40057636888 0.31493506494
          0.10593220339 0 0 0.16759776536 0.3686440678 0.43984962406
          0.44609665428 0.49662162162 0.43984962406 0.3686440678 0.16759776536 0
          0 0.1677852349 0.36734693878 0.43891402715 0.44642857143 0.49593495935
          0.43891402715 0.36734693878 0.1677852349 0 0 0
          0 0 0 0 0 0
          0 0 0 0.027906976744 0 0
          0 0 0 0 0.027906976744 0
          0 0.056338028169 0.072776280323 0.040669856459 0.014117647059 0.012931034483
          0.040669856459 0.072776280323 0.056338028169 0 0 0.06875
          0.11483253589 0.10828025478 0.0375782881 0.034416826004 0.10828025478 0.11483253589
          0.06875 0 0 0.074303405573 0.16235294118 0.16910229645
          0.12371134021 0.11257035647 0.16910229645 0.16235294118 0.074303405573 0
          0 0.084269662921 0.20043103448 0.25812619503 0.33771106942 0.39242685026
          0.25812619503 0.20043103448 0.084269662921 0 0 0.09375
          0.25358851675 0.36093418259 0.41962421712 0.46845124283 0.36093418259 0.25358851675
          0.09375 0 0 0.10563380282 0.3153638814 0.4019138756
          0.44470588235 0.49137931034 0.4019138756 0.3153638814 0.10563380282 0
          0 0.16744186047 0.36971830986 0.440625 0.44582043344 0.49719101124
          0.440625 0.36971830986 0.16744186047 0 0 0.16759776536
          0.3686440678 0.43984962406 0.44609665428 0.49662162162 0.43984962406 0.3686440678
          0.16759776536 0 0 0 0 0
          0 0 0 0 0 0
          0 0.024647887324 0 0 0 0
          0 0 0.024647887324 0 0 0.051212938005
          0.06875 0.038817005545 0.012635379061 0.011666666667 0.038817005545 0.06875
          0.051212938005 0 0 0.064593301435 0.10905730129 0.10491803279
          0.036858974359 0.034023668639 0.10491803279 0.10905730129 0.064593301435 0
          0 0.070588235294 0.15523465704 0.16506410256 0.12283464567 0.11271676301
          0.16506410256 0.15523465704 0.070588235294 0 0 0.081896551724
          0.19333333333 0.25443786982 0.33959537572 0.38985313752 0.25443786982 0.19333333333
          0.081896551724 0 0 0.093301435407 0.24768946396 0.35573770492
          0.41987179487 0.46449704142 0.35573770492 0.24768946396 0.093301435407 0
          0 0.10781671159 0.30833333333 0.39556377079 0.4440433213 0.48666666667
          0.39556377079 0.30833333333 0.10781671159 0 0 0.16197183099
          0.35579514825 0.43062200957 0.44470588235 0.49137931034 0.43062200957 0.35579514825
          0.16197183099 0 0 0.16101694915 0.3538961039 0.42939481268
          0.4447592068 0.49090909091 0.42939481268 0.3538961039 0.16101694915 0
          0 0 0 0 0 0
          0 0 0 0 0 0.025
          0 0 0 0 0 0
          0.025 0 0 0.05023923445 0.068391866913 0.039344262295
          0.012820512821 0.011834319527 0.039344262295 0.068391866913 0.05023923445 0
          0 0.063694267516 0.10819672131 0.10465116279 0.036984352774 0.034120734908
          0.10465116279 0.10819672131 0.063694267516 0 0 0.070981210856
          0.15544871795 0.16500711238 0.12290502793 0.11282051282 0.16500711238 0.15544871795
          0.070981210856 0 0 0.082217973231 0.19378698225 0.25459317585
          0.33974358974 0.38981042654 0.25459317585 0.19378698225 0.082217973231 0
          0 0.093418259023 0.24918032787 0.35610465116 0.41963015647 0.46456692913
          0.35610465116 0.24918032787 0.093418259023 0 0 0.10765550239
          0.30868761553 0.39508196721 0.44391025641 0.48668639053 0.39508196721 0.30868761553
          0.10765550239 0 0 0.1625 0.35645933014 0.43099787686
          0.44467640919 0.4913957935 0.43099787686 0.35645933014 0.1625 0
          0 0.16165413534 0.35446685879 0.42966751918 0.44472361809 0.49078341014
          0.42966751918 0.35446685879 0.16165413534 0 0 0
          0 0 0 0 0 0
          0 0 0 0.02786377709 0 0
          0 0 0 0 0.02786377709 0
          0 0.054117647059 0.070397111913 0.040064102564 0.014173228346 0.013005780347
          0.040064102564 0.070397111913 0.054117647059 0 0 0.066805845511
          0.11057692308 0.106685633 0.037709497207 0.034615384615 0.106685633 0.11057692308
          0.066805845511 0 0 0.074226804124 0.16062992126 0.16759776536
          0.12362637363 0.11292346299 0.16759776536 0.16062992126 0.074226804124 0
          0 0.084427767355 0.19942196532 0.25769230769 0.33877038896 0.39145496536
          0.25769230769 0.19942196532 0.084427767355 0 0 0.093945720251
          0.25320512821 0.35988620199 0.41899441341 0.46666666667 0.35988620199 0.25320512821
          0.093945720251 0 0 0.10588235294 0.31407942238 0.39903846154
          0.44409448819 0.48988439306 0.39903846154 0.31407942238 0.10588235294 0
          0 0.16718266254 0.36705882353 0.43841336117 0.44536082474 0.49530956848
          0.43841336117 0.36705882353 0.16718266254 0 0 0.16728624535
          0.36543909348 0.43718592965 0.44554455446 0.49435665914 0.43718592965 0.36543909348
          0.16728624535 0 0 0 0 0
          0 0 0 0 0 0
          0 0.025280898876 0 0 0 0
          0 0 0.025280898876 0 0 0.049568965517
          0.066666666667 0.038461538462 0.013005780347 0.012016021362 0.038461538462 0.066666666667
          0.049568965517 0 0 0.06309751434 0.1050295858 0.10367454068
          0.037179487179 0.034360189573 0.10367454068 0.1050295858 0.06309751434 0
          0 0.071294559099 0.15462427746 0.1641025641 0.12296110414 0.11316397229
          0.1641025641 0.15462427746 0.071294559099 0 0 0.082616179002
          0.19359145527 0.25473933649 0.34064665127 0.38930481283 0.25473933649 0.19359145527
          0.082616179002 0 0 0.093690248566 0.24852071006 0.35564304462
          0.41923076923 0.46327014218 0.35564304462 0.24852071006 0.093690248566 0
          0 0.10775862069 0.30833333333 0.39349112426 0.4436416185 0.48598130841
          0.39349112426 0.30833333333 0.10775862069 0 0 0.16292134831
          0.35560344828 0.43021032505 0.44465290807 0.49053356282 0.43021032505 0.35560344828
          0.16292134831 0 0 0.16216216216 0.35324675325 0.42857142857
          0.44469525959 0.48962655602 0.42857142857 0.35324675325 0.16216216216 0
          0 0 0 0 0 0
          0 0 0 0 0 0.025
          0 0 0 0 0 0
          0.025 0 0 0.05023923445 0.068391866913 0.039344262295
          0.012820512821 0.011834319527 0.039344262295 0.068391866913 0.05023923445 0
          0 0.063694267516 0.10819672131 0.10465116279 0.036984352774 0.034120734908
          0.10465116279 0.10819672131 0.063694267516 0 0 0.070981210856
          0.15544871795 0.16500711238 0.12290502793 0.11282051282 0.16500711238 0.15544871795
          0.070981210856 0 0 0.082217973231 0.19378698225 0.25459317585
          0.33974358974 0.38981042654 0.25459317585 0.19378698225 0.082217973231 0
          0 0.093418259023 0.24918032787 0.35610465116 0.41963015647 0.46456692913
          0.35610465116 0.24918032787 0.093418259023 0 0 0.10765550239
          0.30868761553 0.39508196721 0.44391025641 0.48668639053 0.39508196721 0.30868761553
          0.10765550239 0 0 0.1625 0.35645933014 0.43099787686
          0.44467640919 0.4913957935 0.43099787686 0.35645933014 0.1625 0
          0 0.16165413534 0.35446685879 0.42966751918 0.44472361809 0.49078341014
          0.42966751918 0.35446685879 0.16165413534 0 0 0
          0 0 0 0 0 0
          0 0 0 0.024647887324 0 0
          0 0 0 0 0.024647887324 0
          0 0.051212938005 0.06875 0.038817005545 0.012635379061 0.011666666667
          0.038817005545 0.06875 0.051212938005 0 0 0.064593301435
          0.10905730129 0.10491803279 0.036858974359 0.034023668639 0.10491803279 0.10905730129
          0.064593301435 0 0 0.070588235294 0.15523465704 0.16506410256
          0.12283464567 0.11271676301 0.16506410256 0.15523465704 0.070588235294 0
          0 0.081896551724 0.19333333333 0.25443786982 0.33959537572 0.38985313752
          0.25443786982 0.19333333333 0.081896551724 0 0 0.093301435407
          0.24768946396 0.35573770492 0.41987179487 0.46449704142 0.35573770492 0.24768946396
          0.093301435407 0 0 0.10781671159 0.30833333333 0.39556377079
          0.4440433213 0.48666666667 0.39556377079 0.30833333333 0.10781671159 0
          0 0.16197183099 0.35579514825 0.43062200957 0.44470588235 0.49137931034
          0.43062200957 0.35579514825 0.16197183099 0 0 0.16101694915
          0.3538961039 0.42939481268 0.4447592068 0.49090909091 0.42939481268 0.3538961039
          0.16101694915 0 0 0 0 0
          0 0 0 0 0 0
          0 0.027906976744 0 0 0 0
          0 0 0.027906976744 0 0 0.056338028169
          0.072776280323 0.040669856459 0.014117647059 0.012931034483 0.040669856459 0.072776280323
          0.056338028169 0 0 0.06875 0.11483253589 0.10828025478
          0.0375782881 0.034416826004 0.10828025478 0.11483253589 0.06875 0
          0 0.074303405573 0.16235294118 0.16910229645 0.12371134021 0.11257035647
          0.16910229645 0.16235294118 0.074303405573 0 0 0.084269662921
          0.20043103448 0.25812619503 0.33771106942 0.39242685026 0.25812619503 0.20043103448
          0.084269662921 0 0 0.09375 0.25358851675 0.36093418259
          0.41962421712 0.46845124283 0.36093418259 0.25358851675 0.09375 0
          0 0.10563380282 0.3153638814 0.4019138756 0.44470588235 0.49137931034
          0.4019138756 0.3153638814 0.10563380282 0 0 0.16744186047
          0.36971830986 0.440625 0.44582043344 0.49719101124 0.440625 0.36971830986
          0.16744186047 0 0 0.16759776536 0.3686440678 0.43984962406
          0.44609665428 0.49662162162 0.43984962406 0.3686440678 0.16759776536 0
          0 0 0 0 0 0
          0 0 0 0 0 0.027932960894
          0 0 0 0 0 0
          0.027932960894 0 0 0.055084745763 0.071428571429 0.040345821326
          0.014164305949 0.012987012987 0.040345821326 0.071428571429 0.055084745763 0
          0 0.067669172932 0.11239193084 0.1074168798 0.037688442211 0.034562211982
          0.1074168798 0.11239193084 0.067669172932 0 0 0.074349442379
          0.16147308782 0.16834170854 0.12376237624 0.11286681716 0.16834170854 0.16147308782
          0.074349442379 0 0 0.084459459459 0.2 0.25806451613
          0.33860045147 0.39211618257 0.25806451613 0.2 0.084459459459 0
          0 0.093984962406 0.25360230548 0.36061381074 0.41959798995 0.46774193548
          0.36061381074 0.25360230548 0.093984962406 0 0 0.10593220339
          0.31493506494 0.40057636888 0.4447592068 0.49090909091 0.40057636888 0.31493506494
          0.10593220339 0 0 0.16759776536 0.3686440678 0.43984962406
          0.44609665428 0.49662162162 0.43984962406 0.3686440678 0.16759776536 0
          0 0.1677852349 0.36734693878 0.43891402715 0.44642857143 0.49593495935
          0.43891402715 0.36734693878 0.1677852349 0
        </DataArray>
        <DataArray type="Float64" Name="Displacement" NumberOfComponents="3" format="ascii" RangeMin="0.97846605144" RangeMax="1.0006638291">
          -0.0085745437938 0.98336929755 -0.027550762373 -0.011514565522 0.98789717034 -0.031988713615
          -0.012107454724 0.98433190201 -0.028457291455 -0.012163263995 0.98423192866 -0.029150066689
          -0.011938952394 0.98440277811 -0.030340711716 -0.011758976069 0.98349108895 -0.029378702929
          -0.011529838143 0.98252276818 -0.02931497992 -0.011687827711 0.98148426462 -0.028551678427
          -0.012342376044 0.98378170645 -0.031854449172 -0.015317700747 0.97795828876 -0.027545731498
          -0.012696522964 0.98559160991 -0.028929102693 -0.013066797581 0.98825653867 -0.031108461359
          -0.011602175993 0.98494956095 -0.030237305074 -0.011518112245 0.98424483201 -0.030157778409
          -0.011160941399 0.98373226277 -0.030429649492 -0.011226825383 0.98338251169 -0.030279170629
          -0.011027937116 0.98269354402 -0.030237310799 -0.010982148874 0.981627907 -0.029877225681
          -0.0094989867866 0.98406488455 -0.030913639868 -0.009777118482 0.98031394176 -0.028631198446
          -0.011173844961 0.98632228272 -0.030172632071 -0.010227762605 0.98603321962 -0.031812568239
          -0.011057831553 0.98561244334 -0.031127842623 -0.01105410958 0.98444444441 -0.031109152305
          -0.010697803176 0.9840545397 -0.031641167742 -0.010826138869 0.98432479485 -0.03261769933
          -0.010284566687 0.98262547217 -0.031035305383 -0.010399000098 0.98261670215 -0.031121516314
          -0.011330173659 0.98200337816 -0.03183799369 -0.010352669132 0.98111002344 -0.030227634339
          -0.0094238403543 0.98712849563 -0.032687994791 -0.0099410011306 0.98698989517 -0.032590856341
          -0.010589543634 0.98529957169 -0.031888978356 -0.0099418124823 0.98486977216 -0.032534614306
          -0.010521750673 0.9837875982 -0.032505794145 -0.010021900978 0.98376947183 -0.032319750886
          -0.010367079547 0.98335087309 -0.032572221868 -0.0096002159991 0.98234421127 -0.031862195992
          -0.010384486171 0.9827839986 -0.032546893776 -0.010790167304 0.98190453022 -0.032514571601
          -0.0093287979741 0.98725868821 -0.032663027555 -0.0093553888369 0.98643125805 -0.032805094506
          -0.0094324449871 0.9852330863 -0.033062028795 -0.0098934714297 0.98442722617 -0.033098631358
          -0.0091057037728 0.98451987124 -0.033304802338 -0.0094710240641 0.98336123243 -0.033573706402
          -0.0093642802386 0.98282716235 -0.033099275793 -0.0096324893872 0.98234815239 -0.032952666821
          -0.0097674097658 0.9821181755 -0.032767979106 -0.0096735246317 0.98200893684 -0.032475850887
          -0.0091128055796 0.98695488882 -0.032619730104 -0.0087870652175 0.98598380638 -0.034189503124
          -0.0082470234752 0.9854956391 -0.033592765977 -0.0089932009195 0.98521965693 -0.033081551677
          -0.0094935465936 0.98367503403 -0.034801835483 -0.0082600394916 0.98297639905 -0.035019929249
          -0.0088276356186 0.98330526501 -0.032980903402 -0.0096858441771 0.98263935514 -0.033518753521
          -0.0091154556271 0.98194164523 -0.034198002892 -0.0087920790474 0.98167127802 -0.03251043126
          -0.0073641906629 0.98608123279 -0.035100021573 -0.0087397538199 0.98693488252 -0.034083209782
          -0.0075007052142 0.98522233198 -0.03475749105 -0.0085487577255 0.98430133747 -0.034949481196
          -0.008285024636 0.98214499813 -0.03505248387 -0.0083469309898 0.98150276237 -0.035053541972
          -0.0081104707731 0.98264827506 -0.034842767654 -0.0092726660688 0.9823645658 -0.034729028483
          -0.0079907161984 0.98278768295 -0.034097638817 -0.0092921442761 0.98083250203 -0.034904435934
          -0.0057229383404 0.98565766534 -0.036327814423 -0.0074306991783 0.98621044617 -0.035182949562
          -0.0087929187751 0.98513990707 -0.035232954736 -0.0054785525721 0.98538210334 -0.03423071937
          -0.0091591941528 0.9846214664 -0.036342357078 -0.0063934121492 0.98404308837 -0.036359355249
          -0.0099468920675 0.98365609775 -0.034297307607 -0.0066284155989 0.98220923757 -0.035209706714
          -0.0081875141087 0.98212156203 -0.035192252463 -0.009873826963 0.98040654626 -0.036196612667
          -0.00634817497 0.98855586431 -0.034547105564 -0.011982143962 0.98776708428 -0.031322418504
          -0.0099540859098 0.98561856211 -0.0361139775 -0.0040289143561 0.98468078271 -0.035301825457
          -0.0067237816647 0.98365416202 -0.037579110636 -0.0077459114687 0.9829193615 -0.037575372809
          -0.0101434783 0.98314000603 -0.035419793671 -0.0042784056888 0.9827638267 -0.035982033151
          -0.0025816888871 0.98361220846 -0.031343499484 -0.0078515171999 0.98320686317 -0.034276092483
          -0.0013118389792 0.99197680813 -0.035052058313 -0.0041725852263 0.99036807655 -0.03293479064
          -0.0040194014935 0.98366469818 -0.036340295898 -0.0041111137364 0.97986885747 -0.040033959651
          0.0017198071841 0.98040847219 -0.031722900595 -0.014998202136 0.97961577209 -0.03202573026
          -0.0092128190081 0.97806294915 -0.040064898362 -0.0092824684476 0.98062798718 -0.036368446601
          -0.0091080785076 0.98643924889 -0.032727729128 -0.011654099078 0.98653438741 -0.034915278609
          -0.01125257759 0.98509438414 -0.029559744969 -0.011187700658 0.98542108954 -0.028652706461
          -0.01181209597 0.98623922811 -0.030193635715 -0.012201486543 0.98512053136 -0.029206918563
          -0.011655695318 0.98437009453 -0.02914880257 -0.011802303506 0.98371010205 -0.029318688421
          -0.011631484003 0.9834029003 -0.029479670982 -0.011941766424 0.98303194246 -0.029915688177
          -0.0126045398 0.9812644882 -0.028550071417 -0.012552976476 0.9797557021 -0.029612270005
          -0.010313814751 0.98676409756 -0.031140492777 -0.01123974228 0.98756624687 -0.030248342444
          -0.010506112987 0.98561647381 -0.031033181883 -0.011155630433 0.98533516134 -0.030817414116
          -0.011244960771 0.98416108991 -0.030104467661 -0.011247677679 0.98426297827 -0.030551706294
          -0.011502330957 0.98333751412 -0.030650909971 -0.012167560081 0.98263142392 -0.03101339035
          -0.011366331531 0.98353223948 -0.030222357322 -0.012292622432 0.98169465311 -0.031278177272
          -0.010482032272 0.98775310804 -0.030366585976 -0.01075596424 0.98657963212 -0.030865452924
          -0.010539443349 0.98624245472 -0.031549422831 -0.010752159118 0.98544746971 -0.031384593727
          -0.010712074783 0.98470072078 -0.031487206434 -0.010691803421 0.98425850253 -0.031563727122
          -0.010709008509 0.98360534399 -0.031323523251 -0.01094492119 0.98337122007 -0.031668807469
          -0.010723760011 0.98248335855 -0.030785262634 -0.010928204944 0.98252446413 -0.030342055539
          -0.010087903477 0.98817075968 -0.031574650714 -0.010380528685 0.98688353876 -0.031984803825
          -0.010247634951 0.98611449384 -0.0319906167 -0.010329930154 0.98512953671 -0.031904988635
          -0.010197743858 0.98472071522 -0.032473285519 -0.010130607109 0.98415463983 -0.03245955626
          -0.009959665193 0.9833291345 -0.031847692999 -0.010072896019 0.98310601648 -0.031910877875
          -0.0099058320785 0.98276561756 -0.031882264885 -0.010185617671 0.9828417871 -0.031513665723
          -0.0093921814045 0.98752327166 -0.032241192323 -0.0092734417415 0.98693309972 -0.032599659998
          -0.0096557779227 0.98599886656 -0.032735144251 -0.0092332553496 0.98559746005 -0.033115454363
          -0.0097058425559 0.98444945538 -0.033234943694 -0.0093897254645 0.98383780096 -0.033172065816
          -0.0097996844875 0.98373577059 -0.033202216223 -0.0094283836679 0.98311896472 -0.032683034895
          -0.0097069450783 0.98283786528 -0.032643269654 -0.0097232335185 0.98222652367 -0.032144761947
          -0.0092034840882 0.98738612747 -0.032397016268 -0.008381282305 0.98694033414 -0.034024963796
          -0.0088119879579 0.9861199037 -0.03343530591 -0.0089345197044 0.98534629415 -0.033529524962
          -0.0085009802438 0.9846680986 -0.033780679644 -0.0094995016704 0.9840124037 -0.033816891703
          -0.0091260126795 0.98366649079 -0.033461464226 -0.0090819412352 0.98319994074 -0.033379651527
          -0.0095105015924 0.98283744437 -0.033954292744 -0.0086686019359 0.98204311298 -0.032317429602
          -0.0079036932141 0.98798047231 -0.033938754128 -0.0077264881887 0.98700572065 -0.034338845083
          -0.0080860008811 0.98613843639 -0.034326801791 -0.0085376364026 0.98509157379 -0.035168811381
          -0.0078532950317 0.98466267974 -0.034702135319 -0.0089329433918 0.98409375265 -0.034776113362
          -0.0081996804561 0.98333512139 -0.035219083907 -0.0086573669102 0.98319810486 -0.034309712775
          -0.0089476885148 0.98289232617 -0.034293515193 -0.0088023311096 0.98275296209 -0.033910765766
          -0.0062636030613 0.98768090191 -0.035288779507 -0.0063968464302 0.9876046726 -0.034811237941
          -0.0073994485216 0.98634847869 -0.035220954812 -0.0070365946082 0.98490776837 -0.035873097643
          -0.005907863244 0.98435684989 -0.03452996034 -0.009681363978 0.98372164394 -0.034514860236
          -0.0086003685957 0.98316762153 -0.035772189306 -0.0080713804756 0.98348433416 -0.0351188789
          -0.0092176570978 0.98355548164 -0.034779381285 -0.0093309434276 0.98246297009 -0.035251520978
          -0.0069301095438 0.98704869447 -0.035696335853 -0.0075679950505 0.98602135003 -0.036448103678
          -0.0063553902624 0.98660300504 -0.036171489489 -0.0063309562738 0.98568115318 -0.035645692504
          -0.0067542735472 0.98488508434 -0.036787581936 -0.0076253673747 0.98433252808 -0.036822445771
          -0.0081358349487 0.98398965012 -0.035617801641 -0.0080355065192 0.98375926015 -0.036075966445
          -0.0068136882826 0.98198997358 -0.036312083172 -0.0074162305076 0.98173856692 -0.035567165731
          -0.0072596560359 0.98485225227 -0.04010836517 -0.0019635190728 0.98995294444 -0.036106334018
          -0.0055853793798 0.98641044801 -0.035822956172 -0.0038430898287 0.98576691554 -0.035974013451
          -0.0056301589328 0.98312080699 -0.040779332828 -0.0077158309475 0.98246908862 -0.040981934167
          -0.0093052568051 0.98402304305 -0.036007890067 -0.0075361915634 0.98352546007 -0.035912746297
          -0.011436553227 0.98617267257 -0.035786028862 -0.0058926381387 0.97948415423 -0.039923913368
          -0.011797249169 0.98789201852 -0.029424465238 -0.011271997571 0.98707546867 -0.02954740317
          -0.0113201554 0.98651989421 -0.029657271806 -0.012141830362 0.98648160917 -0.029760962949
          -0.011779737317 0.98588164636 -0.029961766471 -0.011676547869 0.98546034186 -0.030140981005
          -0.011583696125 0.9847895401 -0.029854348202 -0.012469783007 0.98355910178 -0.029667607591
          -0.012460116541 0.98299197412 -0.029553928845 -0.011858246632 0.98275539813 -0.029340977868
          -0.011052813163 0.98748043418 -0.029857189988 -0.010714514261 0.98763745904 -0.031054130852
          -0.010974744241 0.98622861792 -0.030298444622 -0.011169161191 0.98629567847 -0.030743963492
          -0.011224706914 0.98546074616 -0.030414155532 -0.011331581264 0.98505747848 -0.030535637703
          -0.011423140727 0.98448320066 -0.03062949399 -0.011611876487 0.98337084598 -0.030292925284
          -0.011895589101 0.98355637741 -0.030991341773 -0.011611199084 0.98219402423 -0.029794979342
          -0.010384564863 0.98789496059 -0.031351512707 -0.010229396601 0.98749846544 -0.031455611369
          -0.010671780066 0.98676205978 -0.031188747382 -0.010707308393 0.9861091857 -0.03129522792
          -0.010697819686 0.9855963443 -0.031420211237 -0.010685413985 0.98494565908 -0.031479993439
          -0.010744006369 0.98441486632 -0.031276598884 -0.010789882842 0.98387142221 -0.031198594502
          -0.011205029316 0.98337360936 -0.031386142134 -0.011051426805 0.98259696585 -0.03126795582
          -0.01012993458 0.98807289543 -0.031772161515 -0.0098552296062 0.98746508447 -0.032107649137
          -0.010079019356 0.98687372453 -0.032095037382 -0.010129830239 0.98618717835 -0.032141553938
          -0.010084374199 0.98549238299 -0.032220735327 -0.010124692311 0.98483045194 -0.032286399931
          -0.010145532418 0.98445898268 -0.032131651981 -0.010217505672 0.98398164838 -0.032088339154
          -0.010429967504 0.9833702687 -0.032066527618 -0.010136481382 0.98279137811 -0.031614336749
          -0.0098770397924 0.98842244614 -0.032129094717 -0.009098085903 0.98773799889 -0.032923461042
          -0.0093955794893 0.98688170247 -0.032864983351 -0.0094666264854 0.98622988162 -0.033014065601
          -0.0094611358956 0.98544182127 -0.033043121943 -0.0096241897742 0.98487134069 -0.033049287928
          -0.0096704317196 0.98453479726 -0.032979420255 -0.0097668838278 0.98398671548 -0.032837138233
          -0.0099457020423 0.98366229609 -0.032855955644 -0.0092476426328 0.98312289844 -0.032045450357
          -0.0091558904904 0.9879735629 -0.032942349938 -0.0087755437316 0.98762878374 -0.033595111054
          -0.0087237210091 0.98679143465 -0.033649175391 -0.0085304283703 0.98632968624 -0.033787794625
          -0.0080447794266 0.98551018747 -0.033599836499 -0.0098877923714 0.984926889 -0.033596215096
          -0.0095093136887 0.984552345 -0.0337510859 -0.0091712706499 0.9839035082 -0.033603509951
          -0.0091421131806 0.98354129533 -0.033540414789 -0.0087121779914 0.98268899509 -0.032775794259
          -0.007618979789 0.98824199935 -0.0348230658 -0.0070888879785 0.98788794944 -0.034689676439
          -0.0078865966528 0.98683404143 -0.034463746274 -0.0072597555106 0.98630573723 -0.034402888891
          -0.0083474921486 0.98525937813 -0.03520430311 -0.0085448505925 0.98475524694 -0.035166129373
          -0.0094902060927 0.98454477774 -0.034468033768 -0.0088785144744 0.98390989662 -0.034457633823
          -0.0096654647396 0.98384582351 -0.034632666323 -0.0091187493377 0.98294346635 -0.034749200283
          -0.0065826440998 0.98942359142 -0.034813680762 -0.0058538392102 0.98830277583 -0.035330272139
          -0.007145629525 0.98699889928 -0.035237017677 -0.0068744225895 0.98582362279 -0.035732994094
          -0.0067601644684 0.98520339307 -0.035625012555 -0.0088043332515 0.98482884306 -0.035440175549
          -0.0087530244702 0.98413297682 -0.035694242186 -0.0084853669965 0.98411310281 -0.035178149385
          -0.0096819246869 0.9841763581 -0.035236486502 -0.008959826475 0.98415362923 -0.034644294705
          -0.0062833220876 0.98774836239 -0.03608062165 -0.0058508932016 0.98782962797 -0.036093972933
          -0.0065163766243 0.98679212947 -0.036200844455 -0.0060804360498 0.98594475074 -0.036247497663
          -0.0056504520252 0.98535856007 -0.035825131263 -0.0088145869288 0.98471393821 -0.035801255259
          -0.0083657559375 0.9842244662 -0.036235444384 -0.0079249013215 0.98392075973 -0.03616671407
          -0.0085637481179 0.98374272198 -0.036041937495 -0.0079647374415 0.98233659266 -0.035981383195
          -0.0021730558138 0.9904019634 -0.038173391703 -0.0035341918529 0.98905198274 -0.03686744048
          -0.0069058198824 0.98688059774 -0.035834665832 -0.0041860502217 0.98618551247 -0.036651805885
          -0.005069861618 0.98541579089 -0.037247068315 -0.0080509559484 0.98501109326 -0.037303631893
          -0.0090464513057 0.98446040918 -0.036653634295 -0.0063564452534 0.98395048849 -0.035895075439
          -0.0096565938735 0.98494563958 -0.036771747008 -0.010922532036 0.98514102739 -0.038002440147
          -0.011160149131 0.98862932717 -0.030248346321 -0.010899583814 0.98736362998 -0.029577794836
          -0.01186153775 0.98742280291 -0.029359031641 -0.012040567499 0.98746007881 -0.03009756004
          -0.011874783759 0.98613970263 -0.029587281976 -0.011976583113 0.98568898294 -0.029569054037
          -0.011572826915 0.98588296754 -0.030169119276 -0.011982374878 0.98445293969 -0.029253956792
          -0.012919196748 0.98315117437 -0.029463875697 -0.012553967577 0.98340300484 -0.030166296225
          -0.010659490297 0.98789061869 -0.030042060171 -0.011529122362 0.98834729422 -0.030512020628
          -0.011256477162 0.98757728474 -0.030539259703 -0.01124320109 0.98712197231 -0.030593220654
          -0.011259440352 0.98641815349 -0.03052639179 -0.011319980573 0.98583657804 -0.030513663106
          -0.011328470173 0.98542844203 -0.030584199092 -0.011330289797 0.98466704551 -0.030509453424
          -0.01102183179 0.98419434071 -0.030420836908 -0.012035765939 0.98252912872 -0.029917663241
          -0.011137437034 0.98949833964 -0.031302507021 -0.010427165098 0.98825812755 -0.031417075526
          -0.010716767748 0.98761638386 -0.031378875258 -0.010705381488 0.98695203198 -0.031366177451
          -0.010729416235 0.98632784095 -0.031318795207 -0.010686639706 0.98573808955 -0.031341086936
          -0.010745195763 0.98522987073 -0.031305175479 -0.010687075153 0.98472696131 -0.031347856508
          -0.010934739573 0.9841747325 -0.031339130126 -0.01036689727 0.98418789869 -0.031234424328
          -0.0096915643098 0.98913320253 -0.032416124194 -0.009571218309 0.98825634478 -0.03219689107
          -0.010043367664 0.98768433272 -0.032167198686 -0.010136857674 0.98693206808 -0.03219458702
          -0.010140587157 0.98623421233 -0.03220826373 -0.010171707547 0.98568592474 -0.032208197575
          -0.010143435055 0.98523051968 -0.032136012602 -0.010220175619 0.98476700247 -0.032165747381
          -0.010633731862 0.98417574899 -0.032124648901 -0.010618843884 0.98384168947 -0.032332557045
          -0.0092024758789 0.98924898017 -0.033023818757 -0.0096525385694 0.98827622781 -0.032767816596
          -0.0092227041178 0.98780966202 -0.033050029127 -0.0094119050235 0.9870356303 -0.03302833603
          -0.0095340422398 0.98624821414 -0.033037104119 -0.0096088019246 0.98557874873 -0.032959789714