<?xml version="1.0"?>
<VTKFile type="UnstructuredGrid" version="0.1" byte_order="LittleEndian" compressor="vtkZLibDataCompressor">
  <UnstructuredGrid>
    <FieldData>
      <DataArray type="Float64" Name="TIME" NumberOfTuples="1" format="ascii" RangeMin="0.25379895004" RangeMax="0.25379895004">
        0.25379895004
      </DataArray>
    </FieldData>
    <Piece NumberOfPoints="1000" NumberOfCells="0">
      <PointData>
        <DataArray type="Float64" Name="Damage" format="ascii" RangeMin="0" RangeMax="0.49719101124">
          0 0 0 0 0 0
          0 0 0 0 0 0.027932960894
          0 0 0 0 0 0
          0.027932960894 0 0 0.055084745763 0.071428571429 0.040345821326
          0.014164305949 0.012987012987 0.040345821326 0.071428571429 0.055084745763 0
          0 0.067669172932 0.11239193084 0.1074168798 0.037688442211 0.034562211982
          0.1074168798 0.11239193084 0.067669172932 0 0 0.074349442379
          0.16147308782 0.16834170854 0.12376237624 0.11286681716 0.16834170854 0.16147308782
          0.074349442379 0 0 0.084459459459 0.2 0.25806451613
          0.33860045147 0.39211618257 0.25806451613 0.2 0.084459459459 0
          0 0.093984962406 0.25360230548 0.36061381074 0.41959798995 0.46774193548
          0.36061381074 0.25360230548 0.093984962406 0 0 0.10593220339
          0.31493506494 0.40057636888 0.4447592068 0.49090909091 0.40057636888 0.31493506494
          0.10593220339 0 0 0.16759776536 0.3686440678 0.43984962406
          0.44609665428 0.49662162162 0.43984962406 0.3686440678 0.16759776536 0
          0 0.1677852349 0.36734693878 0.43891402715 0.44642857143 0.49593495935
          0.43891402715 0.36734693878 0.1677852349 0 0 0
          0 0 0 0 0 0
          0 0 0 0.027906976744 0 0
          0 0 0 0 0.027906976744 0
          0 0.056338028169 0.072776280323 0.040669856459 0.014117647059 0.012931034483
          0.040669856459 0.072776280323 0.056338028169 0 0 0.06875
          0.11483253589 0.10828025478 0.0375782881 0.034416826004 0.10828025478 0.11483253589
          0.06875 0 0 0.074303405573 0.16235294118 0.16910229645
          0.12371134021 0.11257035647 0.16910229645 0.16235294118 0.074303405573 0
          0 0.084269662921 0.20043103448 0.25812619503 0.33771106942 0.39242685026
          0.25812619503 0.20043103448 0.084269662921 0 0 0.09375
          0.25358851675 0.36093418259 0.41962421712 0.46845124283 0.36093418259 0.25358851675
          0.09375 0 0 0.10563380282 0.3153638814 0.4019138756
          0.44470588235 0.49137931034 0.4019138756 0.3153638814 0.10563380282 0
          0 0.16744186047 0.36971830986 0.440625 0.44582043344 0.49719101124
          0.440625 0.36971830986 0.16744186047 0 0 0.16759776536
          0.3686440678 0.43984962406 0.44609665428 0.49662162162 0.43984962406 0.3686440678
          0.16759776536 0 0 0 0 0
          0 0 0 0 0 0
          0 0.024647887324 0 0 0 0
          0 0 0.024647887324 0 0 0.051212938005
          0.06875 0.038817005545 0.012635379061 0.011666666667 0.038817005545 0.06875
          0.051212938005 0 0 0.064593301435 0.10905730129 0.10491803279
          0.036858974359 0.034023668639 0.10491803279 0.10905730129 0.064593301435 0
          0 0.070588235294 0.15523465704 0.16506410256 0.12283464567 0.11271676301
          0.16506410256 0.15523465704 0.070588235294 0 0 0.081896551724
          0.19333333333 0.25443786982 0.33959537572 0.38985313752 0.25443786982 0.19333333333
          0.081896551724 0 0 0.093301435407 0.24768946396 0.35573770492
          0.41987179487 0.46449704142 0.35573770492 0.24768946396 0.093301435407 0
          0 0.10781671159 0.30833333333 0.39556377079 0.4440433213 0.48666666667
          0.39556377079 0.30833333333 0.10781671159 0 0 0.16197183099
          0.35579514825 0.43062200957 0.44470588235 0.49137931034 0.43062200957 0.35579514825
          0.16197183099 0 0 0.16101694915 0.3538961039 0.42939481268
          0.4447592068 0.49090909091 0.42939481268 0.3538961039 0.16101694915 0
          0 0 0 0 0 0
          0 0 0 0 0 0.025
          0 0 0 0 0 0
          0.025 0 0 0.05023923445 0.068391866913 0.039344262295
          0.012820512821 0.011834319527 0.039344262295 0.068391866913 0.05023923445 0
          0 0.063694267516 0.10819672131 0.10465116279 0.036984352774 0.034120734908
          0.10465116279 0.10819672131 0.063694267516 0 0 0.070981210856
          0.15544871795 0.16500711238 0.12290502793 0.11282051282 0.16500711238 0.15544871795
          0.070981210856 0 0 0.082217973231 0.19378698225 0.25459317585
          0.33974358974 0.38981042654 0.25459317585 0.19378698225 0.082217973231 0
          0 0.093418259023 0.24918032787 0.35610465116 0.41963015647 0.46456692913
          0.35610465116 0.24918032787 0.093418259023 0 0 0.10765550239
          0.30868761553 0.39508196721 0.44391025641 0.48668639053 0.39508196721 0.30868761553
          0.10765550239 0 0 0.1625 0.35645933014 0.43099787686
          0.44467640919 0.4913957935 0.43099787686 0.35645933014 0.1625 0
          0 0.16165413534 0.35446685879 0.42966751918 0.44472361809 0.49078341014
          0.42966751918 0.35446685879 0.16165413534 0 0 0
          0 0 0 0 0 0
          0 0 0 0.02786377709 0 0
          0 0 0 0 0.02786377709 0
          0 0.054117647059 0.070397111913 0.040064102564 0.014173228346 0.013005780347
          0.040064102564 0.070397111913 0.054117647059 0 0 0.066805845511
          0.11057692308 0.106685633 0.037709497207 0.034615384615 0.106685633 0.11057692308
          0.066805845511 0 0 0.074226804124 0.16062992126 0.16759776536
          0.12362637363 0.11292346299 0.16759776536 0.16062992126 0.074226804124 0
          0 0.084427767355 0.19942196532 0.25769230769 0.33877038896 0.39145496536
          0.25769230769 0.19942196532 0.084427767355 0 0 0.093945720251
          0.25320512821 0.35988620199 0.41899441341 0.46666666667 0.35988620199 0.25320512821
          0.093945720251 0 0 0.10588235294 0.31407942238 0.39903846154
          0.44409448819 0.48988439306 0.39903846154 0.31407942238 0.10588235294 0
          0 0.16718266254 0.36705882353 0.43841336117 0.44536082474 0.49530956848
          0.43841336117 0.36705882353 0.16718266254 0 0 0.16728624535
          0.36543909348 0.43718592965 0.44554455446 0.49435665914 0.43718592965 0.36543909348
          0.16728624535 0 0 0 0 0
          0 0 0 0 0 0
          0 0.025280898876 0 0 0 0
          0 0 0.025280898876 0 0 0.049568965517
          0.066666666667 0.038461538462 0.013005780347 0.012016021362 0.038461538462 0.066666666667
          0.049568965517 0 0 0.06309751434 0.1050295858 0.10367454068
          0.037179487179 0.034360189573 0.10367454068 0.1050295858 0.06309751434 0
          0 0.071294559099 0.15462427746 0.1641025641 0.12296110414 0.11316397229
          0.1641025641 0.15462427746 0.071294559099 0 0 0.082616179002
          0.19359145527 0.25473933649 0.34064665127 0.38930481283 0.25473933649 0.19359145527
          0.082616179002 0 0 0.093690248566 0.24852071006 0.35564304462
          0.41923076923 0.46327014218 0.35564304462 0.24852071006 0.093690248566 0
          0 0.10775862069 0.30833333333 0.39349112426 0.4436416185 0.48598130841
          0.39349112426 0.30833333333 0.10775862069 0 0 0.16292134831
          0.35560344828 0.43021032505 0.44465290807 0.49053356282 0.43021032505 0.35560344828
          0.16292134831 0 0 0.16216216216 0.35324675325 0.42857142857
          0.44469525959 0.48962655602 0.42857142857 0.35324675325 0.16216216216 0
          0 0 0 0 0 0
          0 0 0 0 0 0.025
          0 0 0 0 0 0
          0.025 0 0 0.05023923445 0.068391866913 0.039344262295
          0.012820512821 0.011834319527 0.039344262295 0.068391866913 0.05023923445 0
          0 0.063694267516 0.10819672131 0.10465116279 0.036984352774 0.034120734908
          0.10465116279 0.10819672131 0.063694267516 0 0 0.070981210856
          0.15544871795 0.16500711238 0.12290502793 0.11282051282 0.16500711238 0.15544871795
          0.070981210856 0 0 0.082217973231 0.19378698225 0.25459317585
          0.33974358974 0.38981042654 0.25459317585 0.19378698225 0.082217973231 0
          0 0.093418259023 0.24918032787 0.35610465116 0.41963015647 0.46456692913
          0.35610465116 0.24918032787 0.093418259023 0 0 0.10765550239
          0.30868761553 0.39508196721 0.44391025641 0.48668639053 0.39508196721 0.30868761553
          0.10765550239 0 0 0.1625 0.35645933014 0.43099787686
          0.44467640919 0.4913957935 0.43099787686 0.35645933014 0.1625 0
          0 0.16165413534 0.35446685879 0.42966751918 0.44472361809 0.49078341014
          0.42966751918 0.35446685879 0.16165413534 0 0 0
          0 0 0 0 0 0
          0 0 0 0.024647887324 0 0
          0 0 0 0 0.024647887324 0
          0 0.051212938005 0.06875 0.038817005545 0.012635379061 0.011666666667
          0.038817005545 0.06875 0.051212938005 0 0 0.064593301435
          0.10905730129 0.10491803279 0.036858974359 0.034023668639 0.10491803279 0.10905730129
          0.064593301435 0 0 0.070588235294 0.15523465704 0.16506410256
          0.12283464567 0.11271676301 0.16506410256 0.15523465704 0.070588235294 0
          0 0.081896551724 0.19333333333 0.25443786982 0.33959537572 0.38985313752
          0.25443786982 0.19333333333 0.081896551724 0 0 0.093301435407
          0.24768946396 0.35573770492 0.41987179487 0.46449704142 0.35573770492 0.24768946396
          0.093301435407 0 0 0.10781671159 0.30833333333 0.39556377079
          0.4440433213 0.48666666667 0.39556377079 0.30833333333 0.10781671159 0
          0 0.16197183099 0.35579514825 0.43062200957 0.44470588235 0.49137931034
          0.43062200957 0.35579514825 0.16197183099 0 0 0.16101694915
          0.3538961039 0.42939481268 0.4447592068 0.49090909091 0.42939481268 0.3538961039
          0.16101694915 0 0 0 0 0
          0 0 0 0 0 0
          0 0.027906976744 0 0 0 0
          0 0 0.027906976744 0 0 0.056338028169
          0.072776280323 0.040669856459 0.014117647059 0.012931034483 0.040669856459 0.072776280323
          0.056338028169 0 0 0.06875 0.11483253589 0.10828025478
          0.0375782881 0.034416826004 0.10828025478 0.11483253589 0.06875 0
          0 0.074303405573 0.16235294118 0.16910229645 0.12371134021 0.11257035647
          0.16910229645 0.16235294118 0.074303405573 0 0 0.084269662921
          0.20043103448 0.25812619503 0.33771106942 0.39242685026 0.25812619503 0.20043103448
          0.084269662921 0 0 0.09375 0.25358851675 0.36093418259
          0.41962421712 0.46845124283 0.36093418259 0.25358851675 0.09375 0
          0 0.10563380282 0.3153638814 0.4019138756 0.44470588235 0.49137931034
          0.4019138756 0.3153638814 0.10563380282 0 0 0.16744186047
          0.36971830986 0.440625 0.44582043344 0.49719101124 0.440625 0.36971830986
          0.16744186047 0 0 0.16759776536 0.3686440678 0.43984962406
          0.44609665428 0.49662162162 0.43984962406 0.3686440678 0.16759776536 0
          0 0 0 0 0 0
          0 0 0 0 0 0.027932960894
          0 0 0 0 0 0
          0.027932960894 0 0 0.055084745763 0.071428571429 0.040345821326
          0.014164305949 0.012987012987 0.040345821326 0.071428571429 0.055084745763 0
          0 0.067669172932 0.11239193084 0.1074168798 0.037688442211 0.034562211982
          0.1074168798 0.11239193084 0.067669172932 0 0 0.074349442379
          0.16147308782 0.16834170854 0.12376237624 0.11286681716 0.16834170854 0.16147308782
          0.074349442379 0 0 0.084459459459 0.2 0.25806451613
          0.33860045147 0.39211618257 0.25806451613 0.2 0.084459459459 0
          0 0.093984962406 0.25360230548 0.36061381074 0.41959798995 0.46774193548
          0.36061381074 0.25360230548 0.093984962406 0 0 0.10593220339
          0.31493506494 0.40057636888 0.4447592068 0.49090909091 0.40057636888 0.31493506494
          0.10593220339 0 0 0.16759776536 0.3686440678 0.43984962406
          0.44609665428 0.49662162162 0.43984962406 0.3686440678 0.16759776536 0
          0 0.1677852349 0.36734693878 0.43891402715 0.44642857143 0.49593495935
          0.43891402715 0.36734693878 0.1677852349 0
        </DataArray>
        <DataArray type="Float64" Name="Displacement" NumberOfComponents="3" format="ascii" RangeMin="1.5471011321" RangeMax="1.5665348575">
          -0.0063617366018 1.5537597707 -0.013350849908 -0.0053486784874 1.5575004704 -0.014829260169
          -0.0053672176149 1.5573063219 -0.015304491395 -0.0056373517424 1.5563655357 -0.014428443271
          -0.0055289995254 1.5555084739 -0.014017445786 -0.0056626487221 1.555367567 -0.014019054844
          -0.0054655323643 1.5554543454 -0.014393090048 -0.0056270681615 1.5559452648 -0.015256177137
          -0.005733933267 1.5554332195 -0.014847634016 -0.004842832136 1.5512830206 -0.013303202935
          -0.0043706763527 1.5574498389 -0.015568846243 -0.0035252166866 1.555231869 -0.015266355747
          -0.0053279867189 1.5552841266 -0.013312697821 -0.0055436607926 1.5554362178 -0.013603267036
          -0.005108272801 1.5553320546 -0.013906220775 -0.0052510110458 1.554940926 -0.013662729944
          -0.0049665515544 1.5547351492 -0.013732952161 -0.0051770068191 1.5536762748 -0.013206724011
          -0.0069669592511 1.5533285129 -0.015286917967 -0.0060677019695 1.5547836883 -0.015528586672
          -0.0050908295233 1.5557244301 -0.013885219143 -0.005362804555 1.5558110894 -0.013627612104
          -0.0050838063792 1.5551639424 -0.013902533348 -0.0051083800512 1.5554324555 -0.014287092679
          -0.0050736744703 1.5545397551 -0.013911513783 -0.0048604271745 1.5545762021 -0.014094641391
          -0.0049111246623 1.5546273871 -0.014364925333 -0.0048554616177 1.5537511108 -0.013885172481
          -0.0046189359364 1.5537908872 -0.01365867369 -0.0047811245665 1.5533167539 -0.013856186915
          -0.0053944245522 1.5569111344 -0.014628462666 -0.0052137646422 1.5552880746 -0.015058489464
          -0.0047719440427 1.5556263107 -0.014865748399 -0.0040456392113 1.5557266791 -0.015433083577
          -0.0047377074167 1.5545763882 -0.014561595067 -0.0046432909657 1.5543395474 -0.014652199417
          -0.0054717087308 1.555032984 -0.015580818982 -0.0046672979818 1.5541506934 -0.01487440546
          -0.0041431866906 1.5533062139 -0.015069129515 -0.0040412172841 1.5543627073 -0.014652623838
          -0.0050594686861 1.5565226144 -0.014897474593 -0.0042365316023 1.556362234 -0.015520505161
          -0.004433473219 1.5553094967 -0.015770285878 -0.0046037832505 1.5549971628 -0.015720358082
          -0.0042666419018 1.5559354208 -0.015261125246 -0.0042059467634 1.55496624 -0.015348953443
          -0.0043365460117 1.5542135096 -0.015670148446 -0.0043639546241 1.553880116 -0.015802931029
          -0.0045579693155 1.5543025834 -0.015511992691 -0.0037816485002 1.5539292331 -0.014916777669
          -0.0049758374441 1.5555989233 -0.015536330773 -0.0031807214583 1.556646533 -0.016392275062
          -0.0040244611454 1.5554462279 -0.01642514568 -0.004041716509 1.5554321332 -0.016016328319
          -0.0065231948021 1.5541417023 -0.018038795331 -0.0016820191316 1.5538288181 -0.018133119301
          -0.0041700172453 1.5545392394 -0.015970165575 -0.0042337561967 1.5540089382 -0.016380433916
          -0.0050570652857 1.5546026579 -0.016404646988 -0.0032236975393 1.5529798297 -0.015515510579
          -0.0048355552535 1.5562683421 -0.015406360757 -0.0035225632516 1.5561202746 -0.01652162489
          -0.0037711189086 1.5564872154 -0.015526820619 -0.0058284546889 1.5549095758 -0.017111480801
          -0.0063918546661 1.5555848352 -0.017646721271 -0.0011823623868 1.5552807116 -0.017722594035
          -0.0018248112588 1.5540834137 -0.01710040867 -0.0038999466173 1.5550517253 -0.015512034505
          -0.0042393634506 1.5541773294 -0.01654298252 -0.002785295852 1.5537210685 -0.01533846091
          -0.0032791536828 1.5588401346 -0.015128600394 -0.0027516265415 1.5562887857 -0.016948059268
          -0.002678577001 1.5556302401 -0.016790661554 0.002931819559 1.5561800316 -0.013869243353
          -5.4723659755e-05 1.5550989212 -0.013754482507 -0.0069553622353 1.5548740509 -0.013857135608
          -0.010094364969 1.5554099997 -0.013828936119 -0.0044306467074 1.5542548259 -0.016762803537
          -0.0042236373162 1.5542718327 -0.016887729443 -0.0039390390716 1.5563953215 -0.01516524686
          0.0029626410968 1.5599665768 -0.019491201612 -0.0014384573314 1.5579047424 -0.015996458127
          -0.0043724472137 1.5570082175 -0.015407725224 -0.00151117285 1.5536694348 -0.016436066047
          -0.00092264530098 1.5552213371 -0.015251139366 -0.005440711805 1.5549335344 -0.015293023431
          -0.0050411724603 1.5528090448 -0.016425681609 -0.0021266343134 1.5555457155 -0.015402104748
          -0.0049336161802 1.5558451708 -0.015921890137 -0.0096855094241 1.5573787876 -0.019618098741
          -0.0031648010869 1.5590762783 -0.014137624999 0.0025708871525 1.5631011506 -0.013007286475
          6.6123789096e-05 1.5542156838 -0.018837570335 -0.0013236420858 1.555502538 -0.016591858551
          0.0017984605476 1.5470917302 -0.01980020539 -0.0079948904218 1.5469576316 -0.019495655909
          -0.0045979088994 1.5546778237 -0.016553421383 -0.0059426699156 1.5528472271 -0.018748516562
          -0.0085050078513 1.5613633909 -0.012722258902 -0.0025768177124 1.5568097228 -0.013609304269
          -0.0056940593031 1.5573965024 -0.014870260577 -0.0059930199386 1.5565075047 -0.013147318471
          -0.0050545086852 1.5552335505 -0.012821488652 -0.0056388567255 1.555656956 -0.01355595373
          -0.005369626158 1.5555280758 -0.013614428894 -0.0055620621181 1.5551035675 -0.013421477451
          -0.005463752076 1.5549339419 -0.013713061965 -0.0060342825522 1.5537039341 -0.012752848558
          -0.005132878673 1.5544579078 -0.013058640238 -0.0052924420468 1.5548202332 -0.014818795482
          -0.0044915747359 1.5554663892 -0.013668033614 -0.0054084260223 1.5564841123 -0.013630615007
          -0.0055657930567 1.5562333795 -0.013648267898 -0.0052572405515 1.5556432822 -0.01381887068
          -0.0052410961713 1.5557846882 -0.014104975152 -0.0053098191268 1.555671026 -0.014220409418
          -0.0052838563908 1.554751794 -0.013777797082 -0.0049403187845 1.5547835087 -0.013617253085
          -0.0050891784997 1.5544769309 -0.013608033494 -0.0061690828413 1.5528321441 -0.013679978217
          -0.0055093631591 1.5560282004 -0.014007569528 -0.0053519571622 1.5568640284 -0.014859036413
          -0.0047069064854 1.5563658932 -0.014757807031 -0.0049629516366 1.5557312695 -0.014260181588
          -0.0049973819499 1.5555522547 -0.014264154761 -0.0049438947314 1.5552588638 -0.01427425623
          -0.0050175509749 1.5549264224 -0.014316831333 -0.0052480344556 1.5549101719 -0.014703490634
          -0.0046347470108 1.5548746551 -0.014839320159 -0.004429916606 1.5534655418 -0.013973609474
          -0.0042731586762 1.5569335909 -0.015149236906 -0.0040913176248 1.5563951202 -0.015523594874
          -0.0047458061804 1.5561333519 -0.014863191473 -0.0048414564274 1.5558035743 -0.014616565466
          -0.0046795865503 1.5557792895 -0.015141943349 -0.0046977026131 1.5554045918 -0.015012754571
          -0.0045709860869 1.5549848821 -0.01466925093 -0.0046774612346 1.5547066948 -0.014885129182
          -0.0053401773067 1.5543835641 -0.015502230913 -0.0050822516363 1.5543393749 -0.015142300604
          -0.0043338945361 1.5576446843 -0.015630649071 -0.0036952369583 1.5566774486 -0.016065496264
          -0.0044807300783 1.5562056207 -0.015380155337 -0.0043312471264 1.5560156337 -0.015557577445
          -0.0044015731812 1.5557438852 -0.015417602817 -0.0044102523402 1.5554051674 -0.015412147416
          -0.0044639411034 1.5551557619 -0.015605964896 -0.0043475033147 1.5547900974 -0.015381736779
          -0.0051444523719 1.5547286191 -0.016069575538 -0.004463569221 1.5550544019 -0.015616562874
          -0.0042948541017 1.5570849097 -0.015446943729 -0.0032894574136 1.5566044033 -0.016352658421
          -0.0040247700109 1.5563858848 -0.015635252383 -0.0042936885346 1.5559336432 -0.015726176933
          -0.0042923248127 1.555719793 -0.015550115422 -0.0039900868679 1.5554689211 -0.015570961245
          -0.0040358121934 1.555113213 -0.015701673358 -0.0042615072253 1.5549764515 -0.015635411329
          -0.0049600678413 1.5546314939 -0.016331200269 -0.0039064162242 1.5544975919 -0.015458746245
          -0.0036916465812 1.5567393492 -0.01624323994 -0.0037449031144 1.5565021672 -0.016383117384
          -0.003624740575 1.5563981982 -0.016219646137 -0.0046483174284 1.5559729529 -0.016388158356
          -0.0038245922031 1.5554275872 -0.016141216853 -0.003890218299 1.5551123802 -0.016189369172
          -0.0030496829855 1.5551221918 -0.016403481875 -0.0040630393246 1.5549517628 -0.016221904674
          -0.0039289553032 1.554492686 -0.016383827152 -0.0039469210076 1.5541859904 -0.016269198751
          -0.0031702849925 1.5568675344 -0.016546923425 -0.0033388265645 1.5564340411 -0.016808041008
          -0.0032929907898 1.5565581069 -0.016111993127 -0.0035005796694 1.5565468431 -0.016068394943
          -0.0023312853582 1.554320241 -0.016089635939 -0.0048218840569 1.5540408066 -0.01604520239
          -0.0035951213878 1.555717733 -0.016040554684 -0.0038193347906 1.5551449063 -0.016094324976
          -0.003751862392 1.5544426162 -0.016804663736 -0.0039107631788 1.5543077876 -0.016497242666
          -0.0041265323634 1.5564087974 -0.015890575975 -0.0046388646558 1.5552968123 -0.01712367747
          -0.0030019874752 1.555721142 -0.017656097905 -0.002613674132 1.5562645803 -0.016680637757
          -0.0010542428178 1.5551934653 -0.015017174386 -0.0055080641606 1.5549372133 -0.01501571749
          -0.0039623031971 1.5554139941 -0.016675165273 -0.0035370488954 1.5543349579 -0.017658569834
          -0.0019684474761 1.5533618491 -0.017099245025 -0.0023693149852 1.5537931615 -0.015860821773
          -0.0040711527153 1.5573257468 -0.016006793617 -0.0079929982345 1.5525469647 -0.019564713778
          -0.0047336007185 1.5565843674 -0.017463641422 -0.0035496934996 1.5573242739 -0.017006614336
          -0.0034670035949 1.5548552498 -0.02003182252 -0.00250683596 1.5544990971 -0.020168081915
          -0.0023955826585 1.5564732735 -0.016981404069 -0.0012229881844 1.5551122193 -0.017482175007
          0.0020743833684 1.5504611806 -0.019484095594 -0.0016838476486 1.5545646919 -0.015865386439
          -0.0050759742142 1.5566289891 -0.013041605372 -0.0064883853822 1.5570072896 -0.013087541719
          -0.0060032925186 1.5567511553 -0.01347627811 -0.0056948212845 1.5567709797 -0.013844446228
          -0.0055619960249 1.5559562401 -0.013402142058 -0.0056582377615 1.5554541497 -0.013008388822
          -0.005429913921 1.5559423993 -0.01388332495 -0.0050962720505 1.55529218 -0.013445936774
          -0.0046120205219 1.5549805234 -0.013065834073 -0.0059847193793 1.5541456128 -0.013018344538
          -0.005450364428 1.5569300168 -0.014178559559 -0.0054428521972 1.5570385166 -0.01399140301
          -0.0050398167385 1.5562517288 -0.013905431496 -0.0052454875693 1.5563475485 -0.014031993184
          -0.0052663976363 1.5561528623 -0.014028549706 -0.0052031409355 1.5558605716 -0.014045302465
          -0.0052853986116 1.5555284768 -0.014050744446 -0.0054767757213 1.5548646933 -0.013915952194
          -0.0050695391206 1.5550241589 -0.013959851537 -0.0051015189133 1.5543462895 -0.014159674599
          -0.0052624717715 1.5574094012 -0.01465227746 -0.0046314417012 1.5567279344 -0.014697681593
          -0.0049925890725 1.556645884 -0.014550326496 -0.0049630451972 1.5563989841 -0.014357803361
          -0.0049594746694 1.556211012 -0.014441562986 -0.0049074501714 1.5558381528 -0.014567288786
          -0.0050161325214 1.5555458996 -0.014364961157 -0.0049362008798 1.5552441742 -0.01451301914
          -0.0053373604932 1.5547400946 -0.01466390397 -0.0047247376675 1.5548467644 -0.014581989023
          -0.0046336609617 1.5568875104 -0.014878752337 -0.0048705452235 1.5568219948 -0.014906412992
          -0.0047487966325 1.5566572572 -0.014951819 -0.0046938036383 1.5563747926 -0.014914295927
          -0.0047165471692 1.5561710812 -0.014918823435 -0.0046760952586 1.5558729934 -0.014854155839
          -0.0046840663452 1.5555035532 -0.014928465739 -0.0046299917307 1.5552353524 -0.014948479483
          -0.0045250998238 1.5548521401 -0.014907833311 -0.0047417808667 1.554325469 -0.014802475004
          -0.0041368266555 1.5571569698 -0.015782491243 -0.0047938635717 1.5568140462 -0.015296550083
          -0.0045439711418 1.556562758 -0.015343192223 -0.0045127438166 1.5562705959 -0.015378978544
          -0.0043940030561 1.5560517809 -0.015344020701 -0.0044099685224 1.5557840209 -0.015376311404
          -0.0043377708606 1.5554125514 -0.015357951042 -0.0042774483547 1.5551568182 -0.01533196628
          -0.0040500019155 1.5548227355 -0.015280953769 -0.0046689976815 1.5545893686 -0.015722408022
          -0.0034966136624 1.5576673109 -0.016266869458 -0.0043519925458 1.5569044715 -0.01570068679
          -0.0043929225061 1.5565237883 -0.015689240365 -0.004361413355 1.5563170255 -0.015831295302
          -0.0044201787995 1.5559515485 -0.015899211817 -0.003820910565 1.5556601409 -0.015874353523
          -0.0039168580838 1.5555051658 -0.015814491396 -0.003862605755 1.5551049362 -0.01566642745
          -0.0038921276933 1.5549157391 -0.015673240398 -0.0047389030037 1.5551331549 -0.016224441539
          -0.003569051563 1.5573598658 -0.016447801213 -0.0039747228961 1.5569498183 -0.016074641491
          -0.0041628776567 1.5566389925 -0.016066064553 -0.0045256325847 1.5562309935 -0.016310726186
          -0.0037955418579 1.5560176213 -0.015949467779 -0.0039071442346 1.5557149704 -0.015980769661
          -0.0031991527123 1.5553948278 -0.016272686545 -0.0035261907375 1.5552107281 -0.016040982641
          -0.0037580331167 1.5549647332 -0.016088297896 -0.0040952524049 1.5548059454 -0.016388939507
          -0.0033394222382 1.5566439254 -0.016870268422 -0.0033048737219 1.5574266801 -0.016108293696
          -0.0033351630134 1.5568269994 -0.01628217537 -0.0029281157319 1.5562516517 -0.016496471183
          -0.0028249344457 1.555505045 -0.016056513629 -0.0042608100639 1.5552403469 -0.016090781215
          -0.0042192478352 1.5554112377 -0.016492319851 -0.0037931385866 1.5554011959 -0.016286152496
          -0.0038461964455 1.555443989 -0.016100769764 -0.0037254644868 1.5540365647 -0.016784845518
          -0.003404831286 1.5576173787 -0.016146696261 -0.0034849621174 1.5559459067 -0.017467254204
          -0.0028706162461 1.5573632827 -0.01659554148 -0.0015330770665 1.5571505618 -0.015858169255
          -0.0031618927189 1.5556859805 -0.017357069471 -0.0034155939486 1.5553929861 -0.017314660831
          -0.0050015035745 1.5563080708 -0.015866494151 -0.0036610227702 1.5559053764 -0.016621538762
          -0.0030688497414 1.5539482371 -0.017455791617 -0.0031549825934 1.5551067632 -0.016100614699
          -0.007169935288 1.5536236231 -0.016380840394 -0.00011851135262 1.5593174149 -0.01716338552
          -0.0018506323789 1.557968713 -0.016743983233 -0.0077043798126 1.5587592363 -0.017821534171
          -0.0034714834469 1.5563795408 -0.016480816385 -0.0024145109374 1.556166126 -0.016485594707
          0.0017962971913 1.5579051885 -0.017799256082 -0.0041222843573 1.5566253069 -0.016726253757
          -0.0058160706536 1.5573500124 -0.017130990701 0.0012442079663 1.5509491046 -0.01632146662
          -0.0037011538183 1.5565503664 -0.013610219423 -0.0062476822556 1.5573873918 -0.013286751927
          -0.0051497788497 1.5566516486 -0.013307414417 -0.0050556855699 1.5564081714 -0.013227686966
          -0.005532714704 1.556739226 -0.013694421201 -0.0055857776223 1.5564327931 -0.013617986463
          -0.0060409437252 1.5555266008 -0.013235675395 -0.0060150391448 1.5552069091 -0.013341315843
          -0.0048758037429 1.5554521022 -0.013234796765 -0.0075547152386 1.55388797 -0.013563965083
          -0.0054328090157 1.557926583 -0.013836044967 -0.0049559790346 1.5570616561 -0.014073523896
          -0.0052326710811 1.5570139384 -0.013992144231 -0.0052875101209 1.5567259793 -0.013981490929
          -0.0052686525867 1.5567126725 -0.01410035121 -0.0052611821088 1.5564476861 -0.014080722489
          -0.0052605182199 1.5558737433 -0.013964992327 -0.0053207280299 1.5555758042 -0.013983910305
          -0.0056255218477 1.5550379757 -0.014045071036 -0.0050128680544 1.5553932043 -0.013821381473
          -0.0058736946567 1.5583836466 -0.014152807982 -0.0048435420664 1.5572296712 -0.014619317844
          -0.0050749874315 1.5570148886 -0.014507246466 -0.0050103382156 1.5568235491 -0.014493528727
          -0.0050003355622 1.5565357491 -0.014461800885 -0.0050277881361 1.5562332329 -0.014463356608
          -0.0049440781137 1.555971286 -0.014478283949 -0.0048989052513 1.5556157354 -0.014487307789
          -0.0051432716789 1.5552219911 -0.014582890008 -0.0040856755097 1.5558452192 -0.014115518778
          -0.0043720062329 1.5573162727 -0.015185185233 -0.0047963410003 1.5572759703 -0.014887465131
          -0.0047567144313 1.5570642606 -0.014918963983 -0.0047491248346 1.5568165181 -0.014888979871
          -0.0047136992932 1.5565001427 -0.014919744595 -0.0046417969237 1.556231575 -0.014953314767
          -0.0046809355979 1.5559257479 -0.014873244289 -0.004648839016 1.5556560438 -0.014911339236
          -0.0046273032438 1.5552875669 -0.014875640005 -0.0050354064357 1.5547521206 -0.0151459859
          -0.0044180758545 1.557387939 -0.015349072663 -0.0044745436049 1.5572832363 -0.015347107546
          -0.0044831791138 1.5570150228 -0.015397278911 -0.0044372935468 1.5567297744 -0.015353492113
          -0.0044050439759 1.5564554692 -0.015300864065 -0.0043991690317 1.5561966252 -0.015229253346
          -0.0043826201461 1.5559000648 -0.015357033624 -0.0043518346218 1.5556033195 -0.015394686365
          -0.0043619853253 1.5552949222 -0.015321495147 -0.0044229940136 1.5548540911 -0.015342592758