<?xml version="1.0"?>
<VTKFile type="UnstructuredGrid" version="0.1" byte_order="LittleEndian" compressor="vtkZLibDataCompressor">
  <UnstructuredGrid>
    <FieldData>
      <DataArray type="Float64" Name="TIME" NumberOfTuples="1" format="ascii" RangeMin="0.20090251637" RangeMax="0.20090251637">
        0.20090251637
      </DataArray>
    </FieldData>
    <Piece NumberOfPoints="1000" NumberOfCells="0">
      <PointData>
        <DataArray type="Float64" Name="Damage" format="ascii" RangeMin="0" RangeMax="0.49719101124">
          0 0 0 0 0 0
          0 0 0 0 0 0.027932960894
          0 0 0 0 0 0
          0.027932960894 0 0 0.055084745763 0.071428571429 0.040345821326
          0.014164305949 0.012987012987 0.040345821326 0.071428571429 0.055084745763 0
          0 0.067669172932 0.11239193084 0.1074168798 0.037688442211 0.034562211982
          0.1074168798 0.11239193084 0.067669172932 0 0 0.074349442379
          0.16147308782 0.16834170854 0.12376237624 0.11286681716 0.16834170854 0.16147308782
          0.074349442379 0 0 0.084459459459 0.2 0.25806451613
          0.33860045147 0.39211618257 0.25806451613 0.2 0.084459459459 0
          0 0.093984962406 0.25360230548 0.36061381074 0.41959798995 0.46774193548
          0.36061381074 0.25360230548 0.093984962406 0 0 0.10593220339
          0.31493506494 0.40057636888 0.4447592068 0.49090909091 0.40057636888 0.31493506494
          0.10593220339 0 0 0.16759776536 0.3686440678 0.43984962406
          0.44609665428 0.49662162162 0.43984962406 0.3686440678 0.16759776536 0
          0 0.1677852349 0.36734693878 0.43891402715 0.44642857143 0.49593495935
          0.43891402715 0.36734693878 0.1677852349 0 0 0
          0 0 0 0 0 0
          0 0 0 0.027906976744 0 0
          0 0 0 0 0.027906976744 0
          0 0.056338028169 0.072776280323 0.040669856459 0.014117647059 0.012931034483
          0.040669856459 0.072776280323 0.056338028169 0 0 0.06875
          0.11483253589 0.10828025478 0.0375782881 0.034416826004 0.10828025478 0.11483253589
          0.06875 0 0 0.074303405573 0.16235294118 0.16910229645
          0.12371134021 0.11257035647 0.16910229645 0.16235294118 0.074303405573 0
          0 0.084269662921 0.20043103448 0.25812619503 0.33771106942 0.39242685026
          0.25812619503 0.20043103448 0.084269662921 0 0 0.09375
          0.25358851675 0.36093418259 0.41962421712 0.46845124283 0.36093418259 0.25358851675
          0.09375 0 0 0.10563380282 0.3153638814 0.4019138756
          0.44470588235 0.49137931034 0.4019138756 0.3153638814 0.10563380282 0
          0 0.16744186047 0.36971830986 0.440625 0.44582043344 0.49719101124
          0.440625 0.36971830986 0.16744186047 0 0 0.16759776536
          0.3686440678 0.43984962406 0.44609665428 0.49662162162 0.43984962406 0.3686440678
          0.16759776536 0 0 0 0 0
          0 0 0 0 0 0
          0 0.024647887324 0 0 0 0
          0 0 0.024647887324 0 0 0.051212938005
          0.06875 0.038817005545 0.012635379061 0.011666666667 0.038817005545 0.06875
          0.051212938005 0 0 0.064593301435 0.10905730129 0.10491803279
          0.036858974359 0.034023668639 0.10491803279 0.10905730129 0.064593301435 0
          0 0.070588235294 0.15523465704 0.16506410256 0.12283464567 0.11271676301
          0.16506410256 0.15523465704 0.070588235294 0 0 0.081896551724
          0.19333333333 0.25443786982 0.33959537572 0.38985313752 0.25443786982 0.19333333333
          0.081896551724 0 0 0.093301435407 0.24768946396 0.35573770492
          0.41987179487 0.46449704142 0.35573770492 0.24768946396 0.093301435407 0
          0 0.10781671159 0.30833333333 0.39556377079 0.4440433213 0.48666666667
          0.39556377079 0.30833333333 0.10781671159 0 0 0.16197183099
          0.35579514825 0.43062200957 0.44470588235 0.49137931034 0.43062200957 0.35579514825
          0.16197183099 0 0 0.16101694915 0.3538961039 0.42939481268
          0.4447592068 0.49090909091 0.42939481268 0.3538961039 0.16101694915 0
          0 0 0 0 0 0
          0 0 0 0 0 0.025
          0 0 0 0 0 0
          0.025 0 0 0.05023923445 0.068391866913 0.039344262295
          0.012820512821 0.011834319527 0.039344262295 0.068391866913 0.05023923445 0
          0 0.063694267516 0.10819672131 0.10465116279 0.036984352774 0.034120734908
          0.10465116279 0.10819672131 0.063694267516 0 0 0.070981210856
          0.15544871795 0.16500711238 0.12290502793 0.11282051282 0.16500711238 0.15544871795
          0.070981210856 0 0 0.082217973231 0.19378698225 0.25459317585
          0.33974358974 0.38981042654 0.25459317585 0.19378698225 0.082217973231 0
          0 0.093418259023 0.24918032787 0.35610465116 0.41963015647 0.46456692913
          0.35610465116 0.24918032787 0.093418259023 0 0 0.10765550239
          0.30868761553 0.39508196721 0.44391025641 0.48668639053 0.39508196721 0.30868761553
          0.10765550239 0 0 0.1625 0.35645933014 0.43099787686
          0.44467640919 0.4913957935 0.43099787686 0.35645933014 0.1625 0
          0 0.16165413534 0.35446685879 0.42966751918 0.44472361809 0.49078341014
          0.42966751918 0.35446685879 0.16165413534 0 0 0
          0 0 0 0 0 0
          0 0 0 0.02786377709 0 0
          0 0 0 0 0.02786377709 0
          0 0.054117647059 0.070397111913 0.040064102564 0.014173228346 0.013005780347
          0.040064102564 0.070397111913 0.054117647059 0 0 0.066805845511
          0.11057692308 0.106685633 0.037709497207 0.034615384615 0.106685633 0.11057692308
          0.066805845511 0 0 0.074226804124 0.16062992126 0.16759776536
          0.12362637363 0.11292346299 0.16759776536 0.16062992126 0.074226804124 0
          0 0.084427767355 0.19942196532 0.25769230769 0.33877038896 0.39145496536
          0.25769230769 0.19942196532 0.084427767355 0 0 0.093945720251
          0.25320512821 0.35988620199 0.41899441341 0.46666666667 0.35988620199 0.25320512821
          0.093945720251 0 0 0.10588235294 0.31407942238 0.39903846154
          0.44409448819 0.48988439306 0.39903846154 0.31407942238 0.10588235294 0
          0 0.16718266254 0.36705882353 0.43841336117 0.44536082474 0.49530956848
          0.43841336117 0.36705882353 0.16718266254 0 0 0.16728624535
          0.36543909348 0.43718592965 0.44554455446 0.49435665914 0.43718592965 0.36543909348
          0.16728624535 0 0 0 0 0
          0 0 0 0 0 0
          0 0.025280898876 0 0 0 0
          0 0 0.025280898876 0 0 0.049568965517
          0.066666666667 0.038461538462 0.013005780347 0.012016021362 0.038461538462 0.066666666667
          0.049568965517 0 0 0.06309751434 0.1050295858 0.10367454068
          0.037179487179 0.034360189573 0.10367454068 0.1050295858 0.06309751434 0
          0 0.071294559099 0.15462427746 0.1641025641 0.12296110414 0.11316397229
          0.1641025641 0.15462427746 0.071294559099 0 0 0.082616179002
          0.19359145527 0.25473933649 0.34064665127 0.38930481283 0.25473933649 0.19359145527
          0.082616179002 0 0 0.093690248566 0.24852071006 0.35564304462
          0.41923076923 0.46327014218 0.35564304462 0.24852071006 0.093690248566 0
          0 0.10775862069 0.30833333333 0.39349112426 0.4436416185 0.48598130841
          0.39349112426 0.30833333333 0.10775862069 0 0 0.16292134831
          0.35560344828 0.43021032505 0.44465290807 0.49053356282 0.43021032505 0.35560344828
          0.16292134831 0 0 0.16216216216 0.35324675325 0.42857142857
          0.44469525959 0.48962655602 0.42857142857 0.35324675325 0.16216216216 0
          0 0 0 0 0 0
          0 0 0 0 0 0.025
          0 0 0 0 0 0
          0.025 0 0 0.05023923445 0.068391866913 0.039344262295
          0.012820512821 0.011834319527 0.039344262295 0.068391866913 0.05023923445 0
          0 0.063694267516 0.10819672131 0.10465116279 0.036984352774 0.034120734908
          0.10465116279 0.10819672131 0.063694267516 0 0 0.070981210856
          0.15544871795 0.16500711238 0.12290502793 0.11282051282 0.16500711238 0.15544871795
          0.070981210856 0 0 0.082217973231 0.19378698225 0.25459317585
          0.33974358974 0.38981042654 0.25459317585 0.19378698225 0.082217973231 0
          0 0.093418259023 0.24918032787 0.35610465116 0.41963015647 0.46456692913
          0.35610465116 0.24918032787 0.093418259023 0 0 0.10765550239
          0.30868761553 0.39508196721 0.44391025641 0.48668639053 0.39508196721 0.30868761553
          0.10765550239 0 0 0.1625 0.35645933014 0.43099787686
          0.44467640919 0.4913957935 0.43099787686 0.35645933014 0.1625 0
          0 0.16165413534 0.35446685879 0.42966751918 0.44472361809 0.49078341014
          0.42966751918 0.35446685879 0.16165413534 0 0 0
          0 0 0 0 0 0
          0 0 0 0.024647887324 0 0
          0 0 0 0 0.024647887324 0
          0 0.051212938005 0.06875 0.038817005545 0.012635379061 0.011666666667
          0.038817005545 0.06875 0.051212938005 0 0 0.064593301435
          0.10905730129 0.10491803279 0.036858974359 0.034023668639 0.10491803279 0.10905730129
          0.064593301435 0 0 0.070588235294 0.15523465704 0.16506410256
          0.12283464567 0.11271676301 0.16506410256 0.15523465704 0.070588235294 0
          0 0.081896551724 0.19333333333 0.25443786982 0.33959537572 0.38985313752
          0.25443786982 0.19333333333 0.081896551724 0 0 0.093301435407
          0.24768946396 0.35573770492 0.41987179487 0.46449704142 0.35573770492 0.24768946396
          0.093301435407 0 0 0.10781671159 0.30833333333 0.39556377079
          0.4440433213 0.48666666667 0.39556377079 0.30833333333 0.10781671159 0
          0 0.16197183099 0.35579514825 0.43062200957 0.44470588235 0.49137931034
          0.43062200957 0.35579514825 0.16197183099 0 0 0.16101694915
          0.3538961039 0.42939481268 0.4447592068 0.49090909091 0.42939481268 0.3538961039
          0.16101694915 0 0 0 0 0
          0 0 0 0 0 0
          0 0.027906976744 0 0 0 0
          0 0 0.027906976744 0 0 0.056338028169
          0.072776280323 0.040669856459 0.014117647059 0.012931034483 0.040669856459 0.072776280323
          0.056338028169 0 0 0.06875 0.11483253589 0.10828025478
          0.0375782881 0.034416826004 0.10828025478 0.11483253589 0.06875 0
          0 0.074303405573 0.16235294118 0.16910229645 0.12371134021 0.11257035647
          0.16910229645 0.16235294118 0.074303405573 0 0 0.084269662921
          0.20043103448 0.25812619503 0.33771106942 0.39242685026 0.25812619503 0.20043103448
          0.084269662921 0 0 0.09375 0.25358851675 0.36093418259
          0.41962421712 0.46845124283 0.36093418259 0.25358851675 0.09375 0
          0 0.10563380282 0.3153638814 0.4019138756 0.44470588235 0.49137931034
          0.4019138756 0.3153638814 0.10563380282 0 0 0.16744186047
          0.36971830986 0.440625 0.44582043344 0.49719101124 0.440625 0.36971830986
          0.16744186047 0 0 0.16759776536 0.3686440678 0.43984962406
          0.44609665428 0.49662162162 0.43984962406 0.3686440678 0.16759776536 0
          0 0 0 0 0 0
          0 0 0 0 0 0.027932960894
          0 0 0 0 0 0
          0.027932960894 0 0 0.055084745763 0.071428571429 0.040345821326
          0.014164305949 0.012987012987 0.040345821326 0.071428571429 0.055084745763 0
          0 0.067669172932 0.11239193084 0.1074168798 0.037688442211 0.034562211982
          0.1074168798 0.11239193084 0.067669172932 0 0 0.074349442379
          0.16147308782 0.16834170854 0.12376237624 0.11286681716 0.16834170854 0.16147308782
          0.074349442379 0 0 0.084459459459 0.2 0.25806451613
          0.33860045147 0.39211618257 0.25806451613 0.2 0.084459459459 0
          0 0.093984962406 0.25360230548 0.36061381074 0.41959798995 0.46774193548
          0.36061381074 0.25360230548 0.093984962406 0 0 0.10593220339
          0.31493506494 0.40057636888 0.4447592068 0.49090909091 0.40057636888 0.31493506494
          0.10593220339 0 0 0.16759776536 0.3686440678 0.43984962406
          0.44609665428 0.49662162162 0.43984962406 0.3686440678 0.16759776536 0
          0 0.1677852349 0.36734693878 0.43891402715 0.44642857143 0.49593495935
          0.43891402715 0.36734693878 0.1677852349 0
        </DataArray>
        <DataArray type="Float64" Name="Displacement" NumberOfComponents="3" format="ascii" RangeMin="2.0000000823" RangeMax="2.0090195181">
          -3.9504603926e-06 2.0090195148 -4.0622389741e-06 -3.9611789669e-06 2.0090174887 -5.4462769044e-06
          -3.7465292246e-06 2.0090155079 -6.7602885422e-06 -2.5393742956e-06 2.0090143021 -7.5646911881e-06
          -8.57672424e-07 2.0090136971 -7.9678272756e-06 8.9617814039e-07 2.0090136672 -7.9829925737e-06
          2.5425335655e-06 2.0090143018 -7.5665558859e-06 3.7494654649e-06 2.0090155106 -6.76054493e-06
          3.9622869698e-06 2.0090174931 -5.4452106601e-06 3.9501254794e-06 2.0090195181 -4.0610538862e-06
          -1.4911485353e-05 2.0089937815 -1.7361256811e-05 -1.0391713603e-05 2.0089885827 -2.0234540661e-05
          -1.4358085269e-05 2.008974479 -2.7084563732e-05 -9.7788552396e-06 2.0089686601 -3.0135273142e-05
          -3.2902075598e-06 2.0089656985 -3.1894871793e-05 3.497263001e-06 2.0089654444 -3.1913621399e-05
          9.7845649404e-06 2.0089686634 -3.0137072869e-05 1.436103342e-05 2.0089744852 -2.7083521736e-05
          1.0391487152e-05 2.0089885896 -2.0232042196e-05 1.4909748753e-05 2.0089937857 -1.7359174943e-05
          -3.495635767e-05 2.0089438325 -4.2220202349e-05 -2.257898335e-05 2.0089307593 -4.8978875673e-05
          -1.4319296012e-05 2.0089183707 -5.5385559594e-05 -1.329924039e-05 2.0088988492 -6.5722096e-05
          -6.4128258328e-06 2.0088790496 -7.4788460457e-05 6.54523787e-06 2.0088787663 -7.4760865784e-05
          1.3303455749e-05 2.0088988585 -6.5719984639e-05 1.4318751917e-05 2.0089183807 -5.5381047938e-05
          2.2575310959e-05 2.0089307678 -4.897395731e-05 3.4952514947e-05 2.0089438369 -4.2216984353e-05
          -4.6674880982e-05 2.0089266828 -5.7403501212e-05 -2.9604232079e-05 2.0089092184 -6.6961247047e-05
          -1.3064919367e-05 2.0088980999 -7.39490315e-05 1.3613669471e-06 2.0088934641 -7.7037438434e-05
          -5.4989364062e-06 2.0088601301 -9.6010352324e-05 5.2615113506e-06 2.0088600202 -9.5848483496e-05
          -1.3649014569e-06 2.0088934756 -7.7027848543e-05 1.3057748566e-05 2.0088981096 -7.3939864224e-05
          2.9595942954e-05 2.0089092259 -6.6953677101e-05 4.6668931868e-05 2.008926686 -5.7399292438e-05
          -5.0725051298e-05 2.0089356793 -6.4345850651e-05 -3.1569456846e-05 2.0089161524 -7.6350565567e-05
          -6.5271422191e-06 2.0089077541 -8.0934429694e-05 1.6248744074e-05 2.008909 -7.9891739696e-05
          2.3568574966e-05 2.0089120266 -8.1194375909e-05 -2.4562401318e-05 2.0089122143 -8.0723474259e-05
          -1.6259693633e-05 2.0089090034 -7.9877533652e-05 6.5152661594e-06 2.0089077579 -8.0922693237e-05
          3.1558061408e-05 2.0089161558 -7.6341534517e-05 5.0718014397e-05 2.0089356803 -6.434125726e-05
          -0.00022427027753 2.0085040217 -0.00024419136787 -0.00014493395024 2.0084491702 -0.00028836047613
          -4.3547330288e-05 2.0084337858 -0.00031426442697 6.2434038146e-05 2.0084562583 -0.00031456550568
          0.00017686846855 2.0084972046 -0.00027863638727 -0.00017686706772 2.0084972062 -0.00027863702808
          -6.2441979998e-05 2.0084562541 -0.00031455476847 4.3536355155e-05 2.0084337833 -0.00031425393325
          0.00014492259033 2.0084491691 -0.00028835185556 0.00022426358269 2.0085040205 -0.00024418713265
          -0.00024636759658 2.0085144821 -0.00026792171221 -0.00016312471301 2.0084313426 -0.00032412692492
          -4.6428087428e-05 2.0084026029 -0.00035610382575 8.9978770107e-05 2.0084188226 -0.00034892970317
          0.00021087955237 2.0084702637 -0.0003007992935 -0.00021087869967 2.0084702659 -0.0003008013177
          -8.9978444572e-05 2.0084188225 -0.00034892839774 4.6420040463e-05 2.0084025976 -0.00035609586862
          0.0001631149095 2.0084313381 -0.00032411945492 0.00024636215155 2.0085144795 -0.00026791828543
          -0.00025428009819 2.0085550489 -0.00027665272765 -0.0001706134127 2.0084349929 -0.00035155895321
          -4.1628943207e-05 2.0083855763 -0.00038962262965 0.00010041229086 2.0083994523 -0.00037964544679
          0.00022533442745 2.0084793048 -0.00031909960533 -0.00022533442629 2.0084793053 -0.00031910075952
          -0.00010041196828 2.0083994524 -0.00037964517 4.1627950757e-05 2.0083855748 -0.0003896207851
          0.00017060517486 2.0084349863 -0.00035155277815 0.00025427610625 2.0085550459 -0.00027665019351
          -0.00021074524517 2.0086722543 -0.00023399314273 -0.0001353525764 2.0085244645 -0.00032241244735
          -2.8393633464e-05 2.0084762212 -0.00035639671014 7.2109345907e-05 2.0084850592 -0.00034985207905
          0.00019207193539 2.0085659689 -0.00029191506279 -0.00019207193475 2.0085659712 -0.00029191645583
          -7.2109283376e-05 2.0084850594 -0.00034985227452 2.8392956638e-05 2.0084762198 -0.00035639593137
          0.00013535089284 2.0085244622 -0.00032241109 0.00021074268939 2.0086722518 -0.00023399155136
          -0.0019509136008 2 -0.001973830077 -0.0012872279494 2 -0.0025125667411
          -0.0002738567281 2 -0.0027732343428 0.00079529240513 2 -0.0026945033095
          0.0017429150701 2 -0.0022737984189 -0.0017429150701 2 -0.0022737984189
          -0.00079529240513 2 -0.0026945033095 0.0002738567281 2 -0.0027732343428
          0.0012872279494 2 -0.0025125667411 0.0019509136008 2 -0.001973830077
          -4.9849593677e-06 2.0090178931 -3.7525164527e-06 -4.9797323772e-06 2.0090152258 -5.0141196654e-06
          -4.6687953359e-06 2.0090126625 -6.1967598488e-06 -3.1486437093e-06 2.0090111329 -6.9125333786e-06
          -1.0761475882e-06 2.0090103658 -7.2688516397e-06 1.1023454474e-06 2.0090103367 -7.2771610556e-06
          3.1536919438e-06 2.0090111326 -6.9131661314e-06 4.6726295326e-06 2.0090126671 -6.1956215963e-06
          4.9803983229e-06 2.0090152328 -5.0117418158e-06 4.9838053625e-06 2.0090178981 -3.7505688194e-06
          -1.8323637243e-05 2.0089854429 -1.6134208196e-05 -1.2705144204e-05 2.0089787841 -1.8667035478e-05
          -1.763082564e-05 2.0089611849 -2.4856499948e-05 -1.1924364507e-05 2.00895411 -2.7555083918e-05
          -3.9973162304e-06 2.008950597 -2.91223196e-05 4.2187510338e-06 2.0089502848 -2.9117040965e-05
          1.1933690926e-05 2.0089541157 -2.755455189e-05 1.7634224923e-05 2.0089611951 -2.4853228862e-05
          1.2703397367e-05 2.0089787946 -1.8662681529e-05 1.8320350703e-05 2.0089854491 -1.6131183214e-05
          -4.2917238809e-05 2.0089226369 -3.9015851924e-05 -2.7431298959e-05 2.0089068409 -4.4944748714e-05
          -1.7294710219e-05 2.008891914 -5.0440875366e-05 -1.6177491137e-05 2.0088681237 -5.9692365006e-05
          -7.9378463038e-06 2.0088439163 -6.7990471005e-05 7.9294204928e-06 2.0088436837 -6.7905121465e-05
          1.6182748837e-05 2.0088681399 -5.968634762e-05 1.7291615008e-05 2.0088919299 -5.0433120595e-05
          2.7423826949e-05 2.0089068537 -4.4937403134e-05 4.2910825027e-05 2.0089226432 -3.9011551107e-05
          -5.72219842e-05 2.0089000736 -5.2321333109e-05 -3.6053564762e-05 2.0088782844 -6.0672114211e-05
          -1.5358776634e-05 2.0088651975 -6.6534802322e-05 2.1448127258e-06 2.0088600562 -6.9021498409e-05
          -6.7789866066e-06 2.0088192768 -8.6290956586e-05 6.147737894e-06 2.0088193847 -8.6022794535e-05
          -2.1556460072e-06 2.008860076 -6.9006707021e-05 1.5344086448e-05 2.0088652125 -6.6521676659e-05
          3.6038733359e-05 2.0088782953 -6.0661753162e-05 5.7212553567e-05 2.008900078 -5.2316013267e-05
          -6.2389337897e-05 2.0089083767 -5.742351067e-05 -3.8579313186e-05 2.0088821701 -6.7851202383e-05
          -8.1551516088e-06 2.0088721817 -7.1595855206e-05 1.9522028599e-05 2.0088742712 -7.0234042264e-05
          2.9290902844e-05 2.0088789224 -7.0957115359e-05 -3.0957174689e-05 2.0088794652 -7.0336371558e-05
          -1.9546917669e-05 2.0088742752 -7.0214921396e-05 8.1330731987e-06 2.0088721863 -7.1580323515e-05
          3.8559970328e-05 2.0088821743 -6.7839446002e-05 6.2378551219e-05 2.0089083778 -5.7417927798e-05
          -0.00027422003236 2.0084023337 -0.00021100856704 -0.00018354525019 2.0083573956 -0.00025156336213
          -6.6454380823e-05 2.0083559392 -0.00027714015442 5.8580115441e-05 2.0083885015 -0.00027932304973
          0.00021000025482 2.0084217121 -0.00024532943055 -0.00020999842453 2.0084217172 -0.00024533118158
          -5.8595523341e-05 2.0083884927 -0.00027930934287 6.6435303697e-05 2.0083559339 -0.00027712681856
          0.0001835267015 2.008357393 -0.00025155247358 0.00027421008228 2.0084023317 -0.00021100357291
          -0.00030426804826 2.0083915025 -0.00022643847952 -0.00020909117957 2.0083071675 -0.00027729332917
          -6.8807627933e-05 2.008288991 -0.00030817961285 0.00010647962296 2.0083077201 -0.00030178694381
          0.00026245732657 2.0083487094 -0.00025632424407 -0.00026245612564 2.0083487146 -0.00025632766587
          -0.00010647920391 2.00830772 -0.00030178557459 6.8794515734e-05 2.008288982 -0.00030816979393
          0.0002090759636 2.0083071602 -0.00027728415979 0.00030426021954 2.0083914987 -0.00022643455188
          -0.00032440458582 2.0084044463 -0.00022296453121 -0.00022625491579 2.008263091 -0.00028780214211
          -5.8492173706e-05 2.0082121573 -0.00032222816269 0.00012969383615 2.0082265672 -0.00031342712222
          0.00029316537412 2.0083093369 -0.00025831939594 -0.00029316536906 2.0083093391 -0.00025832150443
          -0.00012969332475 2.0082265678 -0.0003134269869 5.8490737352e-05 2.0082121551 -0.00032222603777
          0.00022624268387 2.0082630811 -0.00028779475946 0.00032439906564 2.0084044421 -0.00022296171824
          -0.0002854343664 2.0085037948 -0.00016868890437 -0.00018849738284 2.0082960165 -0.00023759209739
          -3.8986718207e-05 2.0082389414 -0.00026521348125 0.00010016160865 2.0082474355 -0.00025969564633
          0.00026849583358 2.0083457853 -0.00021253738098 -0.00026849583023 2.0083457893 -0.00021253929786
          -0.0001001613677 2.0082474364 -0.00025969614302 3.8985963029e-05 2.0082389399 -0.00026521280109
          0.0001884952173 2.0082960136 -0.0002375907034 0.00028543098494 2.0085037914 -0.00016868720539
          -0.0026007793104 2 -0.0016534373847 -0.0017441764147 2 -0.0020997664054
          -0.00037294727301 2 -0.0023255273952 0.0010725807093 2 -0.0022540430199
          0.0023592511951 2 -0.0018923862648 -0.0023592511951 2 -0.0018923862648
          -0.0010725807093 2 -0.0022540430199 0.00037294727301 2 -0.0023255273952
          0.0017441764147 2 -0.0020997664054 0.0026007793104 2 -0.0016534373847
          -5.7872386511e-06 2.0090165918 -3.1483675734e-06 -5.7456710846e-06 2.009013479 -4.1439832221e-06
          -5.3405567417e-06 2.0090105171 -5.051568848e-06 -3.5836171399e-06 2.0090087669 -5.6128833968e-06
          -1.2411609385e-06 2.0090078915 -5.8871636039e-06 1.2454814258e-06 2.0090078697 -5.889865845e-06
          3.5897737742e-06 2.0090087679 -5.6120554833e-06 5.3449018841e-06 2.0090105242 -5.0496416013e-06
          5.7462504185e-06 2.0090134883 -4.1417984078e-06 5.7856466057e-06 2.0090165982 -3.1466528867e-06
          -2.096977865e-05 2.0089777939 -1.3941676132e-05 -1.4324283267e-05 2.0089699176 -1.597046141e-05
          -1.9863422995e-05 2.0089495426 -2.0529703922e-05 -1.3324991888e-05 2.0089413581 -2.2737693407e-05
          -4.4896860088e-06 2.0089374086 -2.3937450439e-05 4.6700963076e-06 2.0089370807 -2.3898005138e-05
          1.3335566295e-05 2.0089413681 -2.2734658912e-05 1.986589727e-05 2.0089495577 -2.0524626527e-05
          1.4320740794e-05 2.0089699323 -1.596550971e-05 2.0965199124e-05 2.0089778019 -1.3938813417e-05
          -4.8974599408e-05 2.0089041113 -3.2434603116e-05 -3.0794193766e-05 2.0088863614 -3.6719326225e-05
          -1.8988880931e-05 2.0088697645 -4.0271216124e-05 -1.7949185233e-05 2.0088426492 -4.7133619754e-05
          -9.0989407572e-06 2.0088144969 -5.3829244538e-05 8.870735267e-06 2.0088143843 -5.3698647515e-05
          1.7951736441e-05 2.0088426737 -4.7124689205e-05 1.8981169237e-05 2.0088697873 -4.0261362571e-05
          3.0781749389e-05 2.0088863792 -3.6710520042e-05 4.8965193261e-05 2.0089041197 -3.2429730996e-05
          -6.4494396901e-05 2.0088779969 -4.221238011e-05 -4.0093412836e-05 2.0088536148 -4.7910380466e-05
          -1.6504137529e-05 2.0088396225 -5.1657429673e-05 3.1145959843e-06 2.0088344189 -5.2879109089e-05
          -7.8372549834e-06 2.0087875008 -6.6111312755e-05 6.7526698073e-06 2.0087878957 -6.5809116479e-05
          -3.136191039e-06 2.0088344469 -5.2862104426e-05 1.6479730981e-05 2.0088396431 -5.1642432854e-05
          4.0070689287e-05 2.0088536294 -4.7898559094e-05 6.4481018622e-05 2.0088780026 -4.2206525813e-05
          -6.8144476651e-05 2.0088881581 -4.3693834626e-05 -4.1403409419e-05 2.008858993 -5.0387866963e-05
          -8.6778631455e-06 2.0088488039 -5.2407730537e-05 2.1225818947e-05 2.0088515668 -5.0607705033e-05
          3.2620606162e-05 2.0088568445 -5.0071409712e-05 -3.4966592241e-05 2.0088577866 -4.947138988e-05
          -2.126606851e-05 2.0088515708 -5.0587482678e-05 8.6438923983e-06 2.0088488093 -5.2390818771e-05
          4.1374649114e-05 2.0088589981 -5.0374528282e-05 6.8129491567e-05 2.0088881593 -4.3687771358e-05
          -0.00031006331347 2.008312621 -0.00016330421739 -0.00021499977135 2.0082797335 -0.00019700543458
          -9.1295765346e-05 2.0082920918 -0.00022217907727 4.6803255457e-05 2.008337444 -0.00022240636427
          0.00023007750382 2.0083627319 -0.00019287488364 -0.00023007542124 2.0083627415 -0.00019287743109
          -4.6827076485e-05 2.0083374303 -0.00022239194918 9.1267332463e-05 2.0082920831 -0.00022216443695
          0.00021497257253 2.0082797288 -0.00019699284713 0.00031004974351 2.008312618 -0.00016329883118
          -0.00034545915826 2.0082909072 -0.00017108672549 -0.00024777526844 2.0082158725 -0.00021137639224
          -9.119884309e-05 2.0082155825 -0.00023508182965 0.0001172234283 2.0082356991 -0.00023091102264
          0.00030089685893 2.008256708 -0.00019462303286 -0.00030089525531 2.0082567174 -0.00019462763293
          -0.0001172226768 2.0082356993 -0.00023091019868 9.117968764e-05 2.0082155691 -0.00023507069764
          0.00024775357563 2.008215862 -0.00021136586221 0.00034544875208 2.008290902 -0.00017108260077
          -0.0003657592458 2.00829929 -0.00015059068282 -0.00026363939884 2.0081627753 -0.00019356428383
          -7.1523980151e-05 2.0081216529 -0.00021830053413 0.00014856994285 2.0081341437 -0.00021242095011
          0.00033506385069 2.0082012351 -0.00017266298687 -0.00033506384023 2.0082012399 -0.00017266611112
          -0.0001485691186 2.0081341451 -0.00021242123151 7.1522201569e-05 2.0081216501 -0.0002182984996
          0.00026362317948 2.0081627622 -0.00019355686197 0.00036575236191 2.0082992847 -0.00015058811446
          -0.00030309343193 2.0084197467 -8.0806066871e-05 -0.00020418113886 2.0082079818 -0.00011800996783
          -4.2577467916e-05 2.0081548822 -0.00013517897403 0.0001099358263 2.0081613613 -0.00013139003903
          0.00028929429217 2.0082548625 -0.0001033038832 -0.00028929428599 2.0082548689 -0.0001033064549
          -0.00010993529946 2.0081613633 -0.00013139100646 4.2576745328e-05 2.0081548807 -0.00013517856617
          0.00020417859921 2.0082079784 -0.00011800877597 0.00030308935698 2.0084197427 -8.0804557795e-05
          -0.003111449519 2 -0.0012969101002 -0.0021223996418 2 -0.0016171166561
          -0.00045888165806 2 -0.0017925276797 0.0013185963704 2 -0.001728609782
          0.0028467020322 2 -0.0014568978426 -0.0028467020322 2 -0.0014568978426
          -0.0013185963704 2 -0.001728609782 0.00045888165806 2 -0.0017925276797
          0.0021223996418 2 -0.0016171166561 0.003111449519 2 -0.0012969101002
          -6.153056765e-06 2.0090159757 -1.9299822467e-06 -6.0883910923e-06 2.0090126709 -2.514543487e-06
          -5.6452404594e-06 2.0090095334 -3.0346454909e-06 -3.7762794991e-06 2.0090077167 -3.3569092741e-06
          -1.3224693047e-06 2.0090068139 -3.5114730042e-06 1.302540862e-06 2.0090068008 -3.5118599041e-06
          3.7829929648e-06 2.0090077188 -3.3559525286e-06 5.6496399707e-06 2.0090095423 -3.0330905553e-06
          6.0883072317e-06 2.0090126824 -2.5128063448e-06 6.1507792912e-06 2.0090159834 -1.9286376615e-06
          -2.2366698714e-05 2.0089737077 -8.7827321847e-06 -1.5100301741e-05 2.0089653899 -9.9040656011e-06
          -2.1318664479e-05 2.0089432549 -1.2541807228e-05 -1.4255755171e-05 2.0089345965 -1.3862086856e-05
          -4.826436809e-06 2.008930431 -1.4596734243e-05 4.9651395922e-06 2.0089300975 -1.4554611099e-05
          1.4266424465e-05 2.0089346102 -1.3859235262e-05 2.1320042364e-05 2.0089432735 -1.2537804306e-05
          1.5095123256e-05 2.0089654074 -9.9004541257e-06 2.2360846452e-05 2.0089737171 -8.7806208339e-06
          -5.2433995227e-05 2.008893216 -2.0193012e-05 -3.2636987381e-05 2.0088747046 -2.2561082724e-05
          -2.0101091479e-05 2.0088573114 -2.4327909693e-05 -1.922632804e-05 2.0088281756 -2.8296432484e-05
          -9.9220616617e-06 2.0087976023 -3.2329441145e-05 9.5137204739e-06 2.0087975956 -3.2223927771e-05
          1.9225291545e-05 2.0088282068 -2.8289173879e-05 2.0089168511e-05 2.0088573391 -2.4320402909e-05
          3.2621016364e-05 2.0088747257 -2.255469697e-05 5.2422745048e-05 2.0088932256 -2.0189592665e-05
          -6.8145605193e-05 2.0088659185 -2.5574561203e-05 -4.2011098685e-05 2.0088407054 -2.8615358495e-05
          -1.6972068536e-05 2.0088267401 -3.0383861598e-05 3.4905697318e-06 2.0088215527 -3.0858722813e-05
          -8.7121857573e-06 2.008770762 -3.867369812e-05 7.2462915451e-06 2.0087713997 -3.8444429241e-05
          -3.5222839247e-06 2.008821587 -3.0845706827e-05 1.6939508447e-05 2.0088267646 -3.0372743547e-05
          4.1982702428e-05 2.0088407224 -2.8606857349e-05 6.8129706345e-05 2.0088659249 -2.5570457886e-05