<?xml version="1.0"?>
<VTKFile type="UnstructuredGrid" version="0.1" byte_order="LittleEndian" compressor="vtkZLibDataCompressor">
  <UnstructuredGrid>
    <FieldData>
      <DataArray type="Float64" Name="TIME" NumberOfTuples="1" format="ascii" RangeMin="0.24520663594" RangeMax="0.24520663594">
        0.24520663594
      </DataArray>
    </FieldData>
    <Piece NumberOfPoints="1000" NumberOfCells="0">
      <PointData>
        <DataArray type="Float64" Name="Damage" format="ascii" RangeMin="0" RangeMax="0.49719101124">
          0 0 0 0 0 0
          0 0 0 0 0 0.027932960894
          0 0 0 0 0 0
          0.027932960894 0 0 0.055084745763 0.071428571429 0.040345821326
          0.014164305949 0.012987012987 0.040345821326 0.071428571429 0.055084745763 0
          0 0.067669172932 0.11239193084 0.1074168798 0.037688442211 0.034562211982
          0.1074168798 0.11239193084 0.067669172932 0 0 0.074349442379
          0.16147308782 0.16834170854 0.12376237624 0.11286681716 0.16834170854 0.16147308782
          0.074349442379 0 0 0.084459459459 0.2 0.25806451613
          0.33860045147 0.39211618257 0.25806451613 0.2 0.084459459459 0
          0 0.093984962406 0.25360230548 0.36061381074 0.41959798995 0.46774193548
          0.36061381074 0.25360230548 0.093984962406 0 0 0.10593220339
          0.31493506494 0.40057636888 0.4447592068 0.49090909091 0.40057636888 0.31493506494
          0.10593220339 0 0 0.16759776536 0.3686440678 0.43984962406
          0.44609665428 0.49662162162 0.43984962406 0.3686440678 0.16759776536 0
          0 0.1677852349 0.36734693878 0.43891402715 0.44642857143 0.49593495935
          0.43891402715 0.36734693878 0.1677852349 0 0 0
          0 0 0 0 0 0
          0 0 0 0.027906976744 0 0
          0 0 0 0 0.027906976744 0
          0 0.056338028169 0.072776280323 0.040669856459 0.014117647059 0.012931034483
          0.040669856459 0.072776280323 0.056338028169 0 0 0.06875
          0.11483253589 0.10828025478 0.0375782881 0.034416826004 0.10828025478 0.11483253589
          0.06875 0 0 0.074303405573 0.16235294118 0.16910229645
          0.12371134021 0.11257035647 0.16910229645 0.16235294118 0.074303405573 0
          0 0.084269662921 0.20043103448 0.25812619503 0.33771106942 0.39242685026
          0.25812619503 0.20043103448 0.084269662921 0 0 0.09375
          0.25358851675 0.36093418259 0.41962421712 0.46845124283 0.36093418259 0.25358851675
          0.09375 0 0 0.10563380282 0.3153638814 0.4019138756
          0.44470588235 0.49137931034 0.4019138756 0.3153638814 0.10563380282 0
          0 0.16744186047 0.36971830986 0.440625 0.44582043344 0.49719101124
          0.440625 0.36971830986 0.16744186047 0 0 0.16759776536
          0.3686440678 0.43984962406 0.44609665428 0.49662162162 0.43984962406 0.3686440678
          0.16759776536 0 0 0 0 0
          0 0 0 0 0 0
          0 0.024647887324 0 0 0 0
          0 0 0.024647887324 0 0 0.051212938005
          0.06875 0.038817005545 0.012635379061 0.011666666667 0.038817005545 0.06875
          0.051212938005 0 0 0.064593301435 0.10905730129 0.10491803279
          0.036858974359 0.034023668639 0.10491803279 0.10905730129 0.064593301435 0
          0 0.070588235294 0.15523465704 0.16506410256 0.12283464567 0.11271676301
          0.16506410256 0.15523465704 0.070588235294 0 0 0.081896551724
          0.19333333333 0.25443786982 0.33959537572 0.38985313752 0.25443786982 0.19333333333
          0.081896551724 0 0 0.093301435407 0.24768946396 0.35573770492
          0.41987179487 0.46449704142 0.35573770492 0.24768946396 0.093301435407 0
          0 0.10781671159 0.30833333333 0.39556377079 0.4440433213 0.48666666667
          0.39556377079 0.30833333333 0.10781671159 0 0 0.16197183099
          0.35579514825 0.43062200957 0.44470588235 0.49137931034 0.43062200957 0.35579514825
          0.16197183099 0 0 0.16101694915 0.3538961039 0.42939481268
          0.4447592068 0.49090909091 0.42939481268 0.3538961039 0.16101694915 0
          0 0 0 0 0 0
          0 0 0 0 0 0.025
          0 0 0 0 0 0
          0.025 0 0 0.05023923445 0.068391866913 0.039344262295
          0.012820512821 0.011834319527 0.039344262295 0.068391866913 0.05023923445 0
          0 0.063694267516 0.10819672131 0.10465116279 0.036984352774 0.034120734908
          0.10465116279 0.10819672131 0.063694267516 0 0 0.070981210856
          0.15544871795 0.16500711238 0.12290502793 0.11282051282 0.16500711238 0.15544871795
          0.070981210856 0 0 0.082217973231 0.19378698225 0.25459317585
          0.33974358974 0.38981042654 0.25459317585 0.19378698225 0.082217973231 0
          0 0.093418259023 0.24918032787 0.35610465116 0.41963015647 0.46456692913
          0.35610465116 0.24918032787 0.093418259023 0 0 0.10765550239
          0.30868761553 0.39508196721 0.44391025641 0.48668639053 0.39508196721 0.30868761553
          0.10765550239 0 0 0.1625 0.35645933014 0.43099787686
          0.44467640919 0.4913957935 0.43099787686 0.35645933014 0.1625 0
          0 0.16165413534 0.35446685879 0.42966751918 0.44472361809 0.49078341014
          0.42966751918 0.35446685879 0.16165413534 0 0 0
          0 0 0 0 0 0
          0 0 0 0.02786377709 0 0
          0 0 0 0 0.02786377709 0
          0 0.054117647059 0.070397111913 0.040064102564 0.014173228346 0.013005780347
          0.040064102564 0.070397111913 0.054117647059 0 0 0.066805845511
          0.11057692308 0.106685633 0.037709497207 0.034615384615 0.106685633 0.11057692308
          0.066805845511 0 0 0.074226804124 0.16062992126 0.16759776536
          0.12362637363 0.11292346299 0.16759776536 0.16062992126 0.074226804124 0
          0 0.084427767355 0.19942196532 0.25769230769 0.33877038896 0.39145496536
          0.25769230769 0.19942196532 0.084427767355 0 0 0.093945720251
          0.25320512821 0.35988620199 0.41899441341 0.46666666667 0.35988620199 0.25320512821
          0.093945720251 0 0 0.10588235294 0.31407942238 0.39903846154
          0.44409448819 0.48988439306 0.39903846154 0.31407942238 0.10588235294 0
          0 0.16718266254 0.36705882353 0.43841336117 0.44536082474 0.49530956848
          0.43841336117 0.36705882353 0.16718266254 0 0 0.16728624535
          0.36543909348 0.43718592965 0.44554455446 0.49435665914 0.43718592965 0.36543909348
          0.16728624535 0 0 0 0 0
          0 0 0 0 0 0
          0 0.025280898876 0 0 0 0
          0 0 0.025280898876 0 0 0.049568965517
          0.066666666667 0.038461538462 0.013005780347 0.012016021362 0.038461538462 0.066666666667
          0.049568965517 0 0 0.06309751434 0.1050295858 0.10367454068
          0.037179487179 0.034360189573 0.10367454068 0.1050295858 0.06309751434 0
          0 0.071294559099 0.15462427746 0.1641025641 0.12296110414 0.11316397229
          0.1641025641 0.15462427746 0.071294559099 0 0 0.082616179002
          0.19359145527 0.25473933649 0.34064665127 0.38930481283 0.25473933649 0.19359145527
          0.082616179002 0 0 0.093690248566 0.24852071006 0.35564304462
          0.41923076923 0.46327014218 0.35564304462 0.24852071006 0.093690248566 0
          0 0.10775862069 0.30833333333 0.39349112426 0.4436416185 0.48598130841
          0.39349112426 0.30833333333 0.10775862069 0 0 0.16292134831
          0.35560344828 0.43021032505 0.44465290807 0.49053356282 0.43021032505 0.35560344828
          0.16292134831 0 0 0.16216216216 0.35324675325 0.42857142857
          0.44469525959 0.48962655602 0.42857142857 0.35324675325 0.16216216216 0
          0 0 0 0 0 0
          0 0 0 0 0 0.025
          0 0 0 0 0 0
          0.025 0 0 0.05023923445 0.068391866913 0.039344262295
          0.012820512821 0.011834319527 0.039344262295 0.068391866913 0.05023923445 0
          0 0.063694267516 0.10819672131 0.10465116279 0.036984352774 0.034120734908
          0.10465116279 0.10819672131 0.063694267516 0 0 0.070981210856
          0.15544871795 0.16500711238 0.12290502793 0.11282051282 0.16500711238 0.15544871795
          0.070981210856 0 0 0.082217973231 0.19378698225 0.25459317585
          0.33974358974 0.38981042654 0.25459317585 0.19378698225 0.082217973231 0
          0 0.093418259023 0.24918032787 0.35610465116 0.41963015647 0.46456692913
          0.35610465116 0.24918032787 0.093418259023 0 0 0.10765550239
          0.30868761553 0.39508196721 0.44391025641 0.48668639053 0.39508196721 0.30868761553
          0.10765550239 0 0 0.1625 0.35645933014 0.43099787686
          0.44467640919 0.4913957935 0.43099787686 0.35645933014 0.1625 0
          0 0.16165413534 0.35446685879 0.42966751918 0.44472361809 0.49078341014
          0.42966751918 0.35446685879 0.16165413534 0 0 0
          0 0 0 0 0 0
          0 0 0 0.024647887324 0 0
          0 0 0 0 0.024647887324 0
          0 0.051212938005 0.06875 0.038817005545 0.012635379061 0.011666666667
          0.038817005545 0.06875 0.051212938005 0 0 0.064593301435
          0.10905730129 0.10491803279 0.036858974359 0.034023668639 0.10491803279 0.10905730129
          0.064593301435 0 0 0.070588235294 0.15523465704 0.16506410256
          0.12283464567 0.11271676301 0.16506410256 0.15523465704 0.070588235294 0
          0 0.081896551724 0.19333333333 0.25443786982 0.33959537572 0.38985313752
          0.25443786982 0.19333333333 0.081896551724 0 0 0.093301435407
          0.24768946396 0.35573770492 0.41987179487 0.46449704142 0.35573770492 0.24768946396
          0.093301435407 0 0 0.10781671159 0.30833333333 0.39556377079
          0.4440433213 0.48666666667 0.39556377079 0.30833333333 0.10781671159 0
          0 0.16197183099 0.35579514825 0.43062200957 0.44470588235 0.49137931034
          0.43062200957 0.35579514825 0.16197183099 0 0 0.16101694915
          0.3538961039 0.42939481268 0.4447592068 0.49090909091 0.42939481268 0.3538961039
          0.16101694915 0 0 0 0 0
          0 0 0 0 0 0
          0 0.027906976744 0 0 0 0
          0 0 0.027906976744 0 0 0.056338028169
          0.072776280323 0.040669856459 0.014117647059 0.012931034483 0.040669856459 0.072776280323
          0.056338028169 0 0 0.06875 0.11483253589 0.10828025478
          0.0375782881 0.034416826004 0.10828025478 0.11483253589 0.06875 0
          0 0.074303405573 0.16235294118 0.16910229645 0.12371134021 0.11257035647
          0.16910229645 0.16235294118 0.074303405573 0 0 0.084269662921
          0.20043103448 0.25812619503 0.33771106942 0.39242685026 0.25812619503 0.20043103448
          0.084269662921 0 0 0.09375 0.25358851675 0.36093418259
          0.41962421712 0.46845124283 0.36093418259 0.25358851675 0.09375 0
          0 0.10563380282 0.3153638814 0.4019138756 0.44470588235 0.49137931034
          0.4019138756 0.3153638814 0.10563380282 0 0 0.16744186047
          0.36971830986 0.440625 0.44582043344 0.49719101124 0.440625 0.36971830986
          0.16744186047 0 0 0.16759776536 0.3686440678 0.43984962406
          0.44609665428 0.49662162162 0.43984962406 0.3686440678 0.16759776536 0
          0 0 0 0 0 0
          0 0 0 0 0 0.027932960894
          0 0 0 0 0 0
          0.027932960894 0 0 0.055084745763 0.071428571429 0.040345821326
          0.014164305949 0.012987012987 0.040345821326 0.071428571429 0.055084745763 0
          0 0.067669172932 0.11239193084 0.1074168798 0.037688442211 0.034562211982
          0.1074168798 0.11239193084 0.067669172932 0 0 0.074349442379
          0.16147308782 0.16834170854 0.12376237624 0.11286681716 0.16834170854 0.16147308782
          0.074349442379 0 0 0.084459459459 0.2 0.25806451613
          0.33860045147 0.39211618257 0.25806451613 0.2 0.084459459459 0
          0 0.093984962406 0.25360230548 0.36061381074 0.41959798995 0.46774193548
          0.36061381074 0.25360230548 0.093984962406 0 0 0.10593220339
          0.31493506494 0.40057636888 0.4447592068 0.49090909091 0.40057636888 0.31493506494
          0.10593220339 0 0 0.16759776536 0.3686440678 0.43984962406
          0.44609665428 0.49662162162 0.43984962406 0.3686440678 0.16759776536 0
          0 0.1677852349 0.36734693878 0.43891402715 0.44642857143 0.49593495935
          0.43891402715 0.36734693878 0.1677852349 0
        </DataArray>
        <DataArray type="Float64" Name="Displacement" NumberOfComponents="3" format="ascii" RangeMin="1.6295785496" RangeMax="1.6450163405">
          -0.0054191778939 1.640172729 -0.012082707744 -0.0053521179814 1.6374185117 -0.011615582182
          -0.0044234461671 1.6365024884 -0.011824549136 -0.0048725003171 1.6349614212 -0.010353457486
          -0.0046402334587 1.6341619667 -0.0098546587645 -0.0045163548243 1.6337014815 -0.0097760964641
          -0.0044046137536 1.63420819 -0.010338062936 -0.0048003212002 1.6352818184 -0.011789947701
          -0.0038253376031 1.6356549489 -0.01167755489 -0.0037451191793 1.63815435 -0.011976507271
          -0.0051681421272 1.6372937959 -0.011290693572 -0.0053714841118 1.6377179808 -0.011357997303
          -0.0044755904944 1.6362177502 -0.011960761364 -0.0045440396971 1.6366589808 -0.012470488779
          -0.0041129093682 1.6361128539 -0.012311322733 -0.0045754965356 1.6358081746 -0.012219185225
          -0.0042962653096 1.6358329324 -0.012386089423 -0.0043145966564 1.6351863326 -0.012076139317
          -0.0034083133811 1.635891044 -0.011273298133 -0.003447321544 1.6350733123 -0.011232651074
          -0.0048135057181 1.6372650111 -0.01170758746 -0.0039413571948 1.6363195157 -0.012656192713
          -0.0047440125677 1.6362404639 -0.012045510228 -0.004496405224 1.6357060075 -0.012068307218
          -0.004204091175 1.6362340335 -0.013023467407 -0.00419920183 1.6360396777 -0.013223031352
          -0.0037897558541 1.6349010085 -0.011946509686 -0.0036201519451 1.6349970024 -0.012030191836
          -0.0043570365617 1.6346367391 -0.012621406233 -0.0034431901162 1.6350621867 -0.011616983448
          -0.0045174361726 1.6365614698 -0.011885078081 -0.0038403630119 1.6365976125 -0.012376095388
          -0.0039751758457 1.6358761496 -0.012726193084 -0.0036935054758 1.6362613274 -0.013062595836
          -0.0040093510924 1.6352413827 -0.012598763809 -0.0039401748762 1.6348784564 -0.012635444187
          -0.0042033206654 1.6356790027 -0.013136418433 -0.0038617818788 1.6346529818 -0.012692608987
          -0.0039727395057 1.6349278902 -0.012315546716 -0.0033179509405 1.6343687111 -0.011869440322
          -0.0041810280076 1.6368404323 -0.012300158629 -0.0040349444028 1.6367677708 -0.012661838548
          -0.0033048070145 1.6361340056 -0.012853456237 -0.0038995359284 1.6356062522 -0.012654918302
          -0.0030198916551 1.6361278888 -0.012326328535 -0.0037531965442 1.6355567781 -0.012690500237
          -0.0035625520399 1.6349647721 -0.012574723749 -0.004072632265 1.634921653 -0.012833052261
          -0.0032938346185 1.6350105385 -0.012626695039 -0.0031740801568 1.6347007622 -0.012269541622
          -0.003596496471 1.6371965743 -0.012389723772 -0.0037010230731 1.6364035446 -0.012464477108
          -0.0029735644375 1.6357860927 -0.013415720005 -0.0026416621101 1.6356164997 -0.013239448227
          -0.00057977820715 1.6357565162 -0.01125268299 -0.0064311027494 1.6354076033 -0.011148370024
          -0.0042496661746 1.6349947093 -0.013266297934 -0.0039475296211 1.6346017358 -0.013391253312
          -0.0031231405734 1.634664256 -0.012439753999 -0.0032508925658 1.6350548515 -0.012304280122
          -0.0039225619537 1.6357286145 -0.012792396994 -0.0027416249459 1.6359006714 -0.013820834876
          -0.003108075423 1.6358765157 -0.013626477731 -0.0029172164649 1.6358803358 -0.013419745554
          -0.0028045917807 1.6345528431 -0.0142147617 -0.0034881877107 1.6343598615 -0.014249845748
          -0.0034629829627 1.6351342129 -0.013366065939 -0.0032991396299 1.6346222452 -0.013609569175
          -0.0035708599715 1.634156368 -0.013800830671 -0.002432503114 1.6335377219 -0.012721523643
          -0.0038910996372 1.6370015169 -0.01225352275 -0.0025646839934 1.6354483151 -0.014432453495
          -0.0041788685331 1.6356566558 -0.013850994582 -0.0058971481273 1.6352186392 -0.015232182396
          0.00066350627585 1.6358286972 -0.010894964976 -0.0065748229818 1.6355972091 -0.010849521078
          3.7865050335e-05 1.6344514654 -0.015225856346 -0.0017353311629 1.6344007305 -0.013850334687
          -0.0034565090595 1.6337145751 -0.01451518678 -0.0020886792655 1.6348600021 -0.012306170259
          -0.0021608572383 1.6379984399 -0.012285778349 0.00029869839819 1.6351765053 -0.015738530566
          -0.00066869389814 1.6355827178 -0.014422820509 -0.003684431155 1.6355072767 -0.014153858133
          -0.0030797993342 1.6373869771 -0.013629450545 -0.0022932932883 1.6370667447 -0.013628603417
          -0.0016192720041 1.6348049607 -0.014143307489 -0.0047188239397 1.6344561223 -0.014331475681
          -0.0058852508812 1.6334968666 -0.015795301446 -0.0033418327646 1.6357860969 -0.012308753743
          -0.0013224790947 1.6318962425 -0.021339788068 -0.0037189949293 1.6368642269 -0.014713403058
          -0.0014470992084 1.6355014839 -0.017291611959 -0.0041071254791 1.632096901 -0.019703773163
          -0.0020029226897 1.6419009478 -0.0084142313271 -0.0027479281359 1.6416501818 -0.0084718098656
          -0.00081333790893 1.6311854203 -0.019774549791 -0.0035120412748 1.6342506609 -0.017275668089
          -0.0012765509186 1.6349149629 -0.014936522709 -0.0038905904452 1.6294283759 -0.021777982088
          -0.0050120833309 1.6369771254 -0.0115938059 -0.0038016096827 1.6368783944 -0.012308972356
          -0.0047695416803 1.6367037077 -0.011745189022 -0.0046907806575 1.636754062 -0.012277744324
          -0.0044438930921 1.6363343128 -0.012036600372 -0.0047518016584 1.6360004607 -0.011942488928
          -0.0045915731967 1.6359728412 -0.012137355489 -0.0044972513949 1.6356088905 -0.011841233069
          -0.0054587678533 1.6351930577 -0.012294340828 -0.0041194896824 1.6348122898 -0.01156716885
          -0.0039466583483 1.6374986314 -0.012486196435 -0.004514533124 1.6361641497 -0.011416040744
          -0.0040652563931 1.6361577206 -0.011831145736 -0.0043682256665 1.6364025284 -0.012061612644
          -0.0043308166532 1.6358076624 -0.011816775893 -0.0045230449053 1.635432529 -0.011701531065
          -0.0044242302509 1.63565927 -0.012038332737 -0.0047480553961 1.6349555878 -0.011858347557
          -0.004252720533 1.6345028126 -0.011370975148 -0.0047689907454 1.6354206113 -0.012463639471
          -0.0034925937706 1.637086571 -0.011925372992 -0.0042259019765 1.6365866522 -0.01195553253
          -0.0040942750861 1.6363781172 -0.012368340259 -0.0040477285556 1.635953306 -0.012143093982
          -0.0041379960536 1.6357943044 -0.012264678237 -0.004139691307 1.6356028346 -0.012302430218
          -0.0042993296548 1.6351893118 -0.012156451661 -0.0042285018392 1.6351807523 -0.012359285548
          -0.0040943239671 1.634879622 -0.011914622456 -0.0048181193615 1.6349508866 -0.011930604645
          -0.0038692524852 1.6371097811 -0.012284367367 -0.004058402742 1.6364964973 -0.012034938667
          -0.0038046652849 1.6361288679 -0.01231772399 -0.0037028878379 1.636242458 -0.012900445139
          -0.0039477249049 1.635537356 -0.012353969575 -0.0038947321826 1.6352977691 -0.012325129917
          -0.0041181286437 1.6355073309 -0.012880891417 -0.0040645950439 1.634915567 -0.012311961777
          -0.0037516229982 1.6348215356 -0.0120080941 -0.0039823472816 1.6349473907 -0.012254890929
          -0.0033623457767 1.6373503266 -0.012035060366 -0.0035904565909 1.6366362729 -0.01225155304
          -0.0036622072309 1.6362244468 -0.012671414082 -0.0036630833357 1.6359751018 -0.012611087716
          -0.0035710884117 1.6357007137 -0.012807852086 -0.003758448063 1.635472977 -0.012841528567
          -0.0037332156934 1.6352856129 -0.012587901519 -0.0036994378736 1.6350242792 -0.012653142553
          -0.0037446022695 1.6349455156 -0.012227345941 -0.0039663134461 1.6351765751 -0.012034340503
          -0.0034580648927 1.636990739 -0.012477057644 -0.003565971068 1.6363117468 -0.012821143909
          -0.0035282036497 1.636097552 -0.013205993831 -0.0032120193022 1.6359647999 -0.01334495616
          -0.0027723781751 1.6357116338 -0.013023567167 -0.0041163797864 1.6355021501 -0.013039757406
          -0.0037517078016 1.6352824683 -0.013369546321 -0.0033532355267 1.6348851812 -0.01323440168
          -0.0033075809837 1.6346133566 -0.012811680665 -0.0034007221304 1.6348124795 -0.012467997458
          -0.0038421217078 1.6364231431 -0.012417302031 -0.0030034228974 1.6363340128 -0.013470477404
          -0.0029563221667 1.6360934103 -0.013715959993 -0.0019133103587 1.6359592022 -0.013277763324
          -0.0026075252602 1.6356506397 -0.013504837275 -0.0038306576209 1.6353562064 -0.013537110345
          -0.0044512037865 1.6352374784 -0.013311385789 -0.0034299916014 1.6348979055 -0.01372858372
          -0.0033850721491 1.6346345829 -0.013478789174 -0.0025373193657 1.6342537275 -0.012417718121
          -0.0033784081815 1.6358791957 -0.013664862603 -0.0031185445188 1.6358281557 -0.014253538828
          -0.0027689109566 1.6355864395 -0.014307415491 -0.002809830176 1.6356023966 -0.014431142202
          -0.0031485652452 1.6363300605 -0.013779080504 -0.0027267892401 1.6361207243 -0.013815836193
          -0.0030925778994 1.6349049183 -0.014400909095 -0.0031311116286 1.6343963227 -0.014268154403
          -0.0027889373653 1.634155245 -0.014258306304 -0.0025447277759 1.6337365413 -0.013674042837
          -0.0043810564225 1.6329209508 -0.013556658488 -0.0025675380334 1.6351213864 -0.014600707583
          -0.0029224295354 1.6360711025 -0.01379540146 -0.0035741249832 1.6358844063 -0.014623860203
          -0.0046378774129 1.6365403423 -0.015482423773 -0.0007113556385 1.6363078207 -0.015514888207
          -0.0018249604845 1.6351404517 -0.014646777038 -0.0024523094584 1.6348433745 -0.01380349106
          -0.0028226840342 1.6334182547 -0.014593207005 -0.0010107725012 1.6307360154 -0.013530729262
          -0.0043819745904 1.6372684968 -0.012099011229 -0.0094337512737 1.6354690745 -0.011965728642
          -0.0035168820685 1.6375981616 -0.014262068826 -0.0035036884894 1.6369333667 -0.016108787601
          -0.0014118922962 1.6369840359 -0.015232508779 -0.0036077607542 1.6366546188 -0.015347973233
          -0.0013292381979 1.636203739 -0.016148813099 -0.0013327855081 1.6364010446 -0.014246920198
          0.0044645031528 1.6337720247 -0.011907897407 -0.00079075225164 1.6353060974 -0.012096491917
          -0.0052885644303 1.6384150507 -0.011816441558 -0.0038912686165 1.6366937067 -0.011731177004
          -0.0040652132641 1.6364380591 -0.011627699059 -0.0044090126191 1.6362372708 -0.011354482711
          -0.0045639637778 1.6355391692 -0.010730235884 -0.0046953100521 1.6354108229 -0.01084910338
          -0.0048671953506 1.6354806175 -0.011321484739 -0.0051905242616 1.6352642626 -0.011656385803
          -0.005381473954 1.6350981231 -0.01170091115 -0.0038901991764 1.6363378826 -0.011735759098
          -0.0035395587672 1.6366857701 -0.011647614794 -0.0039886740274 1.6369219304 -0.011964862336
          -0.0041057221978 1.636148414 -0.011532380391 -0.0043040278492 1.6362479809 -0.011741049266
          -0.0043728258012 1.6361464541 -0.011825132858 -0.0044322022522 1.6358874078 -0.011839218787
          -0.0045185611042 1.635507165 -0.011743548933 -0.0046804621922 1.6349877733 -0.011538462902
          -0.0047833669089 1.6352482541 -0.011952593249 -0.0051956086923 1.6345693184 -0.011607077639
          -0.0041469268774 1.6376180815 -0.012298332934 -0.0037706863152 1.6368742551 -0.012105755376
          -0.0039996037088 1.6365962294 -0.01220099362 -0.0041056926021 1.6362672733 -0.012046077549
          -0.004093078748 1.6360929365 -0.012067515915 -0.0042334080584 1.635858233 -0.012038417314
          -0.0041967623977 1.6355447813 -0.012045521254 -0.0043161313919 1.6354081959 -0.012196468
          -0.0045888053724 1.6351903804 -0.012114056405 -0.00417143939 1.6354865456 -0.012240140996
          -0.0037964283522 1.6368673877 -0.012129760799 -0.003757690434 1.6367407918 -0.012138798689
          -0.0037756113587 1.6366343989 -0.012438606187 -0.0038561048392 1.6363229132 -0.012442268065
          -0.0039010240028 1.6359339551 -0.012494505141 -0.0039263623004 1.635686157 -0.012477384639
          -0.0039780395677 1.6356186423 -0.012457325974 -0.0040579748785 1.6354329249 -0.012442419285
          -0.0041090358805 1.6350847452 -0.012144920194 -0.0040553695383 1.6347285658 -0.012103725377
          -0.0032500591716 1.6367944812 -0.012711191002 -0.003643060459 1.6369722041 -0.01244580456
          -0.0034334002666 1.6366672626 -0.012673609607 -0.0036489337161 1.6363202632 -0.012787965509
          -0.003644228477 1.6359917475 -0.012810772016 -0.0037333420489 1.6358271328 -0.012812747092
          -0.0037129203838 1.6356320359 -0.012743540381 -0.0039636969423 1.6354937926 -0.012675875767
          -0.003734209902 1.6353076404 -0.01245028489 -0.0041466453387 1.6346485403 -0.012693894353
          -0.0029955891127 1.6367655562 -0.013129798141 -0.0030837092159 1.6369563545 -0.012951139582
          -0.0030811989777 1.6367004975 -0.013099014376 -0.003081022084 1.6362760237 -0.013094315736
          -0.0032370187904 1.6359512572 -0.01330216916 -0.003644879414 1.635719891 -0.013345734672
          -0.0037861140153 1.6355352954 -0.013085392903 -0.0038033316591 1.6355024869 -0.013095372392
          -0.0037836549504 1.6352850568 -0.012939343382 -0.0038918435788 1.6345903168 -0.013098510985
          -0.0030869324458 1.6374022904 -0.012814412535 -0.0031120360267 1.6369081032 -0.013152082862
          -0.0033156564542 1.6365048707 -0.013396323955 -0.003284679762 1.6362750246 -0.013605203255
          -0.0019468917722 1.6359091236 -0.013022496378 -0.0044652586221 1.6356733903 -0.013015678398
          -0.0031453953776 1.6355848023 -0.013594824184 -0.0030809632862 1.6352959594 -0.013379866938
          -0.003324718084 1.6352298414 -0.013178134529 -0.0033035765378 1.6352491309 -0.012774799318
          -0.0025952277318 1.6366600915 -0.013941177135 -0.0023631504245 1.636775427 -0.01391816371
          -0.0028755470904 1.6362044975 -0.014203836719 -0.002157197582 1.6362461151 -0.013870647565
          -0.0030318197729 1.6361238177 -0.014022483113 -0.0028815461598 1.6358882353 -0.014033636643
          -0.0037281050474 1.6355152262 -0.013900361029 -0.0030133044433 1.6350046516 -0.014210998531
          -0.003508639937 1.6351035963 -0.013887046989 -0.0033707274608 1.6345194488 -0.013937585978
          -0.0022850028062 1.6371412352 -0.014188451219 -0.0021562167333 1.6374250406 -0.013799599097
          -0.0026142864029 1.6360976321 -0.014687556798 -0.0031213398511 1.6363906486 -0.014964421023
          -0.001023666311 1.636003021 -0.013431784346 -0.0043475636848 1.6358076687 -0.01348401782
          -0.0023341920078 1.6356698333 -0.014960332593 -0.0028187023937 1.6349316956 -0.014672089915
          -0.0032146096427 1.6357539084 -0.013771159896 -0.0031414644345 1.6349632509 -0.014160714059
          -0.0062193687956 1.6336365405 -0.012827259189 -0.0054856822304 1.6331680368 -0.015573832621
          -0.00025793204648 1.6345426622 -0.015679583452 -7.8550451981e-05 1.634408193 -0.015399004117
          -0.0036649424274 1.6384809997 -0.014523969819 -0.0011710180856 1.6382901555 -0.01453764453
          -0.004939745372 1.6337060708 -0.015414560551 -0.0046887390059 1.6333681574 -0.015671237731
          0.00058284506278 1.6315244294 -0.015552428287 0.0012033076277 1.631542029 -0.012878309554
          -0.0048946121294 1.6375502343 -0.011605764591 -0.0045836019223 1.6371692474 -0.011135083657
          -0.005047267868 1.6372717366 -0.011216538951 -0.0045536745259 1.6364652563 -0.011228323627
          -0.0046177752846 1.6364171434 -0.011319681552 -0.004542301451 1.6361425279 -0.011372538211
          -0.0047305741805 1.6357375343 -0.011190458515 -0.0041891294277 1.6361043342 -0.011206285369
          -0.0047038578946 1.6355861737 -0.011087228989 -0.0044732133784 1.6353142279 -0.011563014388
          -0.003949791966 1.6372355125 -0.01132826317 -0.0047368170913 1.6377639099 -0.011734000252
          -0.0043666683277 1.6369583599 -0.011678466712 -0.0044512392169 1.6368545303 -0.011816041273
          -0.0043935489051 1.6365259888 -0.011793042166 -0.0043869775669 1.6362274876 -0.011756517834
          -0.0043545071779 1.6361819939 -0.011812128814 -0.0044491179769 1.63576682 -0.011684171167
          -0.0040069779643 1.6361537887 -0.0117271859 -0.0048278239257 1.6351360908 -0.011320584164
          -0.0034578760694 1.6370347355 -0.012318700383 -0.003783806106 1.6372207397 -0.012074340407
          -0.0040610035631 1.6369708893 -0.012175696372 -0.0041136942265 1.6367100158 -0.012026700952
          -0.0041454693749 1.6364962384 -0.012028041188 -0.0041134847529 1.6362439543 -0.01201647438
          -0.0042124510635 1.6359944389 -0.012033896884 -0.0042624732574 1.6357731542 -0.01216689468
          -0.0045377354292 1.6355567436 -0.012067934008 -0.0048634915313 1.6349309773 -0.012297260506
          -0.0034890498634 1.6371291627 -0.012251403856 -0.0036018396252 1.6372877135 -0.012351979557
          -0.0037434432767 1.6370353941 -0.01231590525 -0.0038384916616 1.636685386 -0.012389563289
          -0.0039331226058 1.6363094383 -0.012366141236 -0.0039179663044 1.6360933782 -0.012386366884
          -0.0039717382728 1.6359811317 -0.012416040358 -0.0041019494862 1.6358428794 -0.012319255686
          -0.0042536441567 1.6356179534 -0.012356780211 -0.004379320038 1.6350013107 -0.012245826136
          -0.0035215045328 1.6377875789 -0.012664728735 -0.0035055117696 1.6373096218 -0.012582806118
          -0.0035166013276 1.6369738926 -0.012694068127 -0.0035784851734 1.6367506015 -0.012746079074
          -0.0036499401949 1.6364246535 -0.012773529498 -0.0037794229883 1.6362140774 -0.01283725693
          -0.003814614347 1.6360193388 -0.012776840911 -0.0038690395787 1.6357824792 -0.012717727859
          -0.0038608184336 1.635655345 -0.012585721284 -0.0038635904006 1.6356402936 -0.012637999253