<?xml version="1.0"?>
<VTKFile type="UnstructuredGrid" version="0.1" byte_order="LittleEndian" compressor="vtkZLibDataCompressor">
  <UnstructuredGrid>
    <FieldData>
      <DataArray type="Float64" Name="TIME" NumberOfTuples="1" format="ascii" RangeMin="0.2221147918" RangeMax="0.2221147918">
        0.2221147918
      </DataArray>
    </FieldData>
    <Piece NumberOfPoints="1000" NumberOfCells="0">
      <PointData>
        <DataArray type="Float64" Name="Damage" format="ascii" RangeMin="0" RangeMax="0.49719101124">
          0 0 0 0 0 0
          0 0 0 0 0 0.027932960894
          0 0 0 0 0 0
          0.027932960894 0 0 0.055084745763 0.071428571429 0.040345821326
          0.014164305949 0.012987012987 0.040345821326 0.071428571429 0.055084745763 0
          0 0.067669172932 0.11239193084 0.1074168798 0.037688442211 0.034562211982
          0.1074168798 0.11239193084 0.067669172932 0 0 0.074349442379
          0.16147308782 0.16834170854 0.12376237624 0.11286681716 0.16834170854 0.16147308782
          0.074349442379 0 0 0.084459459459 0.2 0.25806451613
          0.33860045147 0.39211618257 0.25806451613 0.2 0.084459459459 0
          0 0.093984962406 0.25360230548 0.36061381074 0.41959798995 0.46774193548
          0.36061381074 0.25360230548 0.093984962406 0 0 0.10593220339
          0.31493506494 0.40057636888 0.4447592068 0.49090909091 0.40057636888 0.31493506494
          0.10593220339 0 0 0.16759776536 0.3686440678 0.43984962406
          0.44609665428 0.49662162162 0.43984962406 0.3686440678 0.16759776536 0
          0 0.1677852349 0.36734693878 0.43891402715 0.44642857143 0.49593495935
          0.43891402715 0.36734693878 0.1677852349 0 0 0
          0 0 0 0 0 0
          0 0 0 0.027906976744 0 0
          0 0 0 0 0.027906976744 0
          0 0.056338028169 0.072776280323 0.040669856459 0.014117647059 0.012931034483
          0.040669856459 0.072776280323 0.056338028169 0 0 0.06875
          0.11483253589 0.10828025478 0.0375782881 0.034416826004 0.10828025478 0.11483253589
          0.06875 0 0 0.074303405573 0.16235294118 0.16910229645
          0.12371134021 0.11257035647 0.16910229645 0.16235294118 0.074303405573 0
          0 0.084269662921 0.20043103448 0.25812619503 0.33771106942 0.39242685026
          0.25812619503 0.20043103448 0.084269662921 0 0 0.09375
          0.25358851675 0.36093418259 0.41962421712 0.46845124283 0.36093418259 0.25358851675
          0.09375 0 0 0.10563380282 0.3153638814 0.4019138756
          0.44470588235 0.49137931034 0.4019138756 0.3153638814 0.10563380282 0
          0 0.16744186047 0.36971830986 0.440625 0.44582043344 0.49719101124
          0.440625 0.36971830986 0.16744186047 0 0 0.16759776536
          0.3686440678 0.43984962406 0.44609665428 0.49662162162 0.43984962406 0.3686440678
          0.16759776536 0 0 0 0 0
          0 0 0 0 0 0
          0 0.024647887324 0 0 0 0
          0 0 0.024647887324 0 0 0.051212938005
          0.06875 0.038817005545 0.012635379061 0.011666666667 0.038817005545 0.06875
          0.051212938005 0 0 0.064593301435 0.10905730129 0.10491803279
          0.036858974359 0.034023668639 0.10491803279 0.10905730129 0.064593301435 0
          0 0.070588235294 0.15523465704 0.16506410256 0.12283464567 0.11271676301
          0.16506410256 0.15523465704 0.070588235294 0 0 0.081896551724
          0.19333333333 0.25443786982 0.33959537572 0.38985313752 0.25443786982 0.19333333333
          0.081896551724 0 0 0.093301435407 0.24768946396 0.35573770492
          0.41987179487 0.46449704142 0.35573770492 0.24768946396 0.093301435407 0
          0 0.10781671159 0.30833333333 0.39556377079 0.4440433213 0.48666666667
          0.39556377079 0.30833333333 0.10781671159 0 0 0.16197183099
          0.35579514825 0.43062200957 0.44470588235 0.49137931034 0.43062200957 0.35579514825
          0.16197183099 0 0 0.16101694915 0.3538961039 0.42939481268
          0.4447592068 0.49090909091 0.42939481268 0.3538961039 0.16101694915 0
          0 0 0 0 0 0
          0 0 0 0 0 0.025
          0 0 0 0 0 0
          0.025 0 0 0.05023923445 0.068391866913 0.039344262295
          0.012820512821 0.011834319527 0.039344262295 0.068391866913 0.05023923445 0
          0 0.063694267516 0.10819672131 0.10465116279 0.036984352774 0.034120734908
          0.10465116279 0.10819672131 0.063694267516 0 0 0.070981210856
          0.15544871795 0.16500711238 0.12290502793 0.11282051282 0.16500711238 0.15544871795
          0.070981210856 0 0 0.082217973231 0.19378698225 0.25459317585
          0.33974358974 0.38981042654 0.25459317585 0.19378698225 0.082217973231 0
          0 0.093418259023 0.24918032787 0.35610465116 0.41963015647 0.46456692913
          0.35610465116 0.24918032787 0.093418259023 0 0 0.10765550239
          0.30868761553 0.39508196721 0.44391025641 0.48668639053 0.39508196721 0.30868761553
          0.10765550239 0 0 0.1625 0.35645933014 0.43099787686
          0.44467640919 0.4913957935 0.43099787686 0.35645933014 0.1625 0
          0 0.16165413534 0.35446685879 0.42966751918 0.44472361809 0.49078341014
          0.42966751918 0.35446685879 0.16165413534 0 0 0
          0 0 0 0 0 0
          0 0 0 0.02786377709 0 0
          0 0 0 0 0.02786377709 0
          0 0.054117647059 0.070397111913 0.040064102564 0.014173228346 0.013005780347
          0.040064102564 0.070397111913 0.054117647059 0 0 0.066805845511
          0.11057692308 0.106685633 0.037709497207 0.034615384615 0.106685633 0.11057692308
          0.066805845511 0 0 0.074226804124 0.16062992126 0.16759776536
          0.12362637363 0.11292346299 0.16759776536 0.16062992126 0.074226804124 0
          0 0.084427767355 0.19942196532 0.25769230769 0.33877038896 0.39145496536
          0.25769230769 0.19942196532 0.084427767355 0 0 0.093945720251
          0.25320512821 0.35988620199 0.41899441341 0.46666666667 0.35988620199 0.25320512821
          0.093945720251 0 0 0.10588235294 0.31407942238 0.39903846154
          0.44409448819 0.48988439306 0.39903846154 0.31407942238 0.10588235294 0
          0 0.16718266254 0.36705882353 0.43841336117 0.44536082474 0.49530956848
          0.43841336117 0.36705882353 0.16718266254 0 0 0.16728624535
          0.36543909348 0.43718592965 0.44554455446 0.49435665914 0.43718592965 0.36543909348
          0.16728624535 0 0 0 0 0
          0 0 0 0 0 0
          0 0.025280898876 0 0 0 0
          0 0 0.025280898876 0 0 0.049568965517
          0.066666666667 0.038461538462 0.013005780347 0.012016021362 0.038461538462 0.066666666667
          0.049568965517 0 0 0.06309751434 0.1050295858 0.10367454068
          0.037179487179 0.034360189573 0.10367454068 0.1050295858 0.06309751434 0
          0 0.071294559099 0.15462427746 0.1641025641 0.12296110414 0.11316397229
          0.1641025641 0.15462427746 0.071294559099 0 0 0.082616179002
          0.19359145527 0.25473933649 0.34064665127 0.38930481283 0.25473933649 0.19359145527
          0.082616179002 0 0 0.093690248566 0.24852071006 0.35564304462
          0.41923076923 0.46327014218 0.35564304462 0.24852071006 0.093690248566 0
          0 0.10775862069 0.30833333333 0.39349112426 0.4436416185 0.48598130841
          0.39349112426 0.30833333333 0.10775862069 0 0 0.16292134831
          0.35560344828 0.43021032505 0.44465290807 0.49053356282 0.43021032505 0.35560344828
          0.16292134831 0 0 0.16216216216 0.35324675325 0.42857142857
          0.44469525959 0.48962655602 0.42857142857 0.35324675325 0.16216216216 0
          0 0 0 0 0 0
          0 0 0 0 0 0.025
          0 0 0 0 0 0
          0.025 0 0 0.05023923445 0.068391866913 0.039344262295
          0.012820512821 0.011834319527 0.039344262295 0.068391866913 0.05023923445 0
          0 0.063694267516 0.10819672131 0.10465116279 0.036984352774 0.034120734908
          0.10465116279 0.10819672131 0.063694267516 0 0 0.070981210856
          0.15544871795 0.16500711238 0.12290502793 0.11282051282 0.16500711238 0.15544871795
          0.070981210856 0 0 0.082217973231 0.19378698225 0.25459317585
          0.33974358974 0.38981042654 0.25459317585 0.19378698225 0.082217973231 0
          0 0.093418259023 0.24918032787 0.35610465116 0.41963015647 0.46456692913
          0.35610465116 0.24918032787 0.093418259023 0 0 0.10765550239
          0.30868761553 0.39508196721 0.44391025641 0.48668639053 0.39508196721 0.30868761553
          0.10765550239 0 0 0.1625 0.35645933014 0.43099787686
          0.44467640919 0.4913957935 0.43099787686 0.35645933014 0.1625 0
          0 0.16165413534 0.35446685879 0.42966751918 0.44472361809 0.49078341014
          0.42966751918 0.35446685879 0.16165413534 0 0 0
          0 0 0 0 0 0
          0 0 0 0.024647887324 0 0
          0 0 0 0 0.024647887324 0
          0 0.051212938005 0.06875 0.038817005545 0.012635379061 0.011666666667
          0.038817005545 0.06875 0.051212938005 0 0 0.064593301435
          0.10905730129 0.10491803279 0.036858974359 0.034023668639 0.10491803279 0.10905730129
          0.064593301435 0 0 0.070588235294 0.15523465704 0.16506410256
          0.12283464567 0.11271676301 0.16506410256 0.15523465704 0.070588235294 0
          0 0.081896551724 0.19333333333 0.25443786982 0.33959537572 0.38985313752
          0.25443786982 0.19333333333 0.081896551724 0 0 0.093301435407
          0.24768946396 0.35573770492 0.41987179487 0.46449704142 0.35573770492 0.24768946396
          0.093301435407 0 0 0.10781671159 0.30833333333 0.39556377079
          0.4440433213 0.48666666667 0.39556377079 0.30833333333 0.10781671159 0
          0 0.16197183099 0.35579514825 0.43062200957 0.44470588235 0.49137931034
          0.43062200957 0.35579514825 0.16197183099 0 0 0.16101694915
          0.3538961039 0.42939481268 0.4447592068 0.49090909091 0.42939481268 0.3538961039
          0.16101694915 0 0 0 0 0
          0 0 0 0 0 0
          0 0.027906976744 0 0 0 0
          0 0 0.027906976744 0 0 0.056338028169
          0.072776280323 0.040669856459 0.014117647059 0.012931034483 0.040669856459 0.072776280323
          0.056338028169 0 0 0.06875 0.11483253589 0.10828025478
          0.0375782881 0.034416826004 0.10828025478 0.11483253589 0.06875 0
          0 0.074303405573 0.16235294118 0.16910229645 0.12371134021 0.11257035647
          0.16910229645 0.16235294118 0.074303405573 0 0 0.084269662921
          0.20043103448 0.25812619503 0.33771106942 0.39242685026 0.25812619503 0.20043103448
          0.084269662921 0 0 0.09375 0.25358851675 0.36093418259
          0.41962421712 0.46845124283 0.36093418259 0.25358851675 0.09375 0
          0 0.10563380282 0.3153638814 0.4019138756 0.44470588235 0.49137931034
          0.4019138756 0.3153638814 0.10563380282 0 0 0.16744186047
          0.36971830986 0.440625 0.44582043344 0.49719101124 0.440625 0.36971830986
          0.16744186047 0 0 0.16759776536 0.3686440678 0.43984962406
          0.44609665428 0.49662162162 0.43984962406 0.3686440678 0.16759776536 0
          0 0 0 0 0 0
          0 0 0 0 0 0.027932960894
          0 0 0 0 0 0
          0.027932960894 0 0 0.055084745763 0.071428571429 0.040345821326
          0.014164305949 0.012987012987 0.040345821326 0.071428571429 0.055084745763 0
          0 0.067669172932 0.11239193084 0.1074168798 0.037688442211 0.034562211982
          0.1074168798 0.11239193084 0.067669172932 0 0 0.074349442379
          0.16147308782 0.16834170854 0.12376237624 0.11286681716 0.16834170854 0.16147308782
          0.074349442379 0 0 0.084459459459 0.2 0.25806451613
          0.33860045147 0.39211618257 0.25806451613 0.2 0.084459459459 0
          0 0.093984962406 0.25360230548 0.36061381074 0.41959798995 0.46774193548
          0.36061381074 0.25360230548 0.093984962406 0 0 0.10593220339
          0.31493506494 0.40057636888 0.4447592068 0.49090909091 0.40057636888 0.31493506494
          0.10593220339 0 0 0.16759776536 0.3686440678 0.43984962406
          0.44609665428 0.49662162162 0.43984962406 0.3686440678 0.16759776536 0
          0 0.1677852349 0.36734693878 0.43891402715 0.44642857143 0.49593495935
          0.43891402715 0.36734693878 0.1677852349 0
        </DataArray>
        <DataArray type="Float64" Name="Displacement" NumberOfComponents="3" format="ascii" RangeMin="1.8389780281" RangeMax="1.8594303889">
          -0.0044091574159 1.8581259577 -0.0068664992612 -0.0025080029602 1.8489054365 -0.004003424934
          -0.0018203033299 1.8515144429 -0.0053077239082 -0.0019612069684 1.8516695155 -0.0055106175296
          -0.0020174691971 1.8516282972 -0.0055057025527 -0.0022228270076 1.8515973062 -0.0056150320218
          -0.002325289698 1.8513324524 -0.0055028768883 -0.0024841954576 1.8509618198 -0.0053157715696
          -0.0017359136168 1.8480964959 -0.0040171300691 0.00035340825775 1.8571759079 -0.006738838789
          -0.0030532104461 1.851238533 -0.0061516426635 -0.0007611161559 1.8507065984 -0.0055520526627
          -0.0019826089314 1.8518835697 -0.0057447882963 -0.0021557230157 1.8522910716 -0.0060099066294
          -0.002004786951 1.852159466 -0.0061044424358 -0.0021591102776 1.8518174793 -0.0059582771463
          -0.001864751803 1.8519927905 -0.0060225229066 -0.0020752258064 1.8513612959 -0.0057835313979
          -0.0032541815897 1.8498876028 -0.0054811689359 -0.0010706381828 1.8502068663 -0.0062588262459
          -0.0011216299913 1.8506755162 -0.0052665045213 -0.0018753888004 1.8509605481 -0.0052121203829
          -0.0024817558219 1.8515350797 -0.0052026419005 -0.0017366065405 1.8521953083 -0.0061909694427
          -0.0018866935851 1.8523976546 -0.0063938348154 -0.0018960173862 1.8522493549 -0.0062793919203
          -0.0020603403679 1.8518872136 -0.0062363349855 -0.0013045548452 1.8509599055 -0.0051899685691
          -0.0019066260722 1.8501044255 -0.0051802225099 -0.0026726092583 1.8496071896 -0.00525327284
          -0.00093183475057 1.8513896656 -0.0065206977922 -0.0016138462201 1.851247418 -0.0060088819844
          -0.0018121473226 1.8510696078 -0.0057802767673 -0.0017602380447 1.8516749189 -0.0058755976316
          -0.0018002105919 1.8515420629 -0.0055599781875 -0.0017718324022 1.8513568477 -0.0055784212586
          -0.0017789807909 1.8512758026 -0.0058215286438 -0.0017720472349 1.85049706 -0.0057802158429
          -0.0019261431037 1.8504526944 -0.0060103814586 -0.0026107146066 1.8503082427 -0.0065265775686
          -0.00076785837855 1.85149626 -0.0069272769573 -0.0015394270509 1.8514362334 -0.006119060543
          -0.0019789132388 1.8512319522 -0.0058880898212 -0.0015324701628 1.8519366778 -0.0058864941102
          -0.0018275512068 1.8513189764 -0.0060109631455 -0.0013522087309 1.8513050392 -0.0060701851203
          -0.0017609996054 1.8515365664 -0.0058714909994 -0.0013563985457 1.8506686892 -0.0058703859185
          -0.0017749203552 1.8506178457 -0.0061109107379 -0.0025519208714 1.8503892073 -0.0069369244931
          -0.00053874988418 1.8511796409 -0.0074487651921 -0.0015194432582 1.8516396496 -0.0062370766692
          -0.0021234999364 1.8511764667 -0.0060764302142 -0.0022793647883 1.8512475991 -0.0060543614105
          -0.0026884439459 1.8513374365 -0.006644245825 -0.0003573950336 1.8511522938 -0.006717305762
          -0.00079798996749 1.8508920546 -0.0060524728753 -0.00096474064492 1.8505934334 -0.0060506054225
          -0.0015631534315 1.8508202976 -0.006210011262 -0.0025870446711 1.8501066792 -0.0074765930236
          -0.00062446387593 1.8515775641 -0.0075111134724 -0.0020095539296 1.8521729073 -0.0056725676026
          -0.0025393966031 1.851801665 -0.0057097898032 -0.0033644794747 1.8511783108 -0.0068115390549
          -0.0023571476036 1.8520023203 -0.0061778435279 -0.00047364708854 1.8519045711 -0.0061728920622
          0.00054178856409 1.8507828344 -0.0068381002049 -0.00027157089298 1.8511905802 -0.0056916800088
          -0.0007900899321 1.8513429974 -0.0056233828145 -0.002280360578 1.8504963001 -0.0075627952008
          -0.0015745679024 1.850808145 -0.007398735183 -0.0031000599109 1.8519761225 -0.0051692087616
          -0.0029587149516 1.8516238052 -0.005971577898 -0.0038003497703 1.8517306024 -0.0066269405261
          -0.0018316367031 1.8513306042 -0.006506595924 -0.00080163393022 1.8511954112 -0.0064898044416
          0.0012687228311 1.8513382762 -0.0066609014884 0.00039952836436 1.8510109029 -0.0059627163005
          0.00059383383388 1.8511465781 -0.0050857613939 -0.0010500108393 1.8497368211 -0.0074145049852
          -0.0023312402217 1.8511846818 -0.0048014044616 0.00013450197743 1.8514579348 -0.0066077790611
          -0.0031817195837 1.8536199604 -0.0035875219947 -0.0042183127822 1.8540291947 -0.0043040217902
          -0.0012609806745 1.8500129498 -0.0060178092785 -0.0010310271592 1.8498483506 -0.0061133567168
          0.0019006929349 1.8536752538 -0.0043098651367 0.00087077285297 1.8530412779 -0.0035739227054
          -0.0025836110323 1.8507337551 -0.0065967208642 0.00016487589818 1.8500333466 -0.0046522794311
          -0.0034270062677 1.840188079 -0.015051286536 -0.00067558161796 1.8526045087 -0.0055162087996
          -0.0034657320007 1.8545053956 -0.0032873469489 -0.0026586319694 1.8542526458 -0.003438807528
          -0.0014144147037 1.8464426936 -0.0097723510025 -0.00081723320663 1.8462524678 -0.0097566225119
          0.00055682889732 1.8539612814 -0.003383392227 0.0013966451631 1.8539962352 -0.0032227609257
          -0.001383929829 1.8520145628 -0.0053005946758 0.0011067616513 1.8389130368 -0.015420961112
          -0.00046730362308 1.8492683131 -0.0057887948432 -0.0022546532796 1.8515914105 -0.0046189081042
          -0.0017709652241 1.8516541237 -0.0056225800911 -0.0018744372407 1.8520972969 -0.006100500039
          -0.0020532062367 1.8520077261 -0.0060525881589 -0.0021924037321 1.8517574593 -0.0058100202919
          -0.0024102832431 1.8517798019 -0.0061319957912 -0.0025269515914 1.8511299833 -0.0056699595627
          -0.0020878221271 1.8507280459 -0.0045580498528 -0.003942409322 1.848081724 -0.0058030520412
          -0.0015735433813 1.8503454536 -0.0040716803821 -0.0019085098739 1.851449195 -0.0052219987982
          -0.0021693467123 1.8517264899 -0.005335766084 -0.0020263834629 1.8522499356 -0.0060666810749
          -0.0019556538618 1.8521452172 -0.0061573068498 -0.0021116063066 1.8518958833 -0.0060522700312
          -0.0020237688596 1.8519296457 -0.006088867341 -0.0018611004465 1.8511482416 -0.0053039173742
          -0.0021232189232 1.8506137581 -0.0051850733907 -0.0024927711879 1.8492305748 -0.0040192180751
          -0.0015413279609 1.8510074567 -0.0055916987247 -0.0018597064492 1.8515409278 -0.0056711008535
          -0.0018812024362 1.8516448045 -0.0055326972119 -0.0018694316048 1.851557654 -0.0055106696211
          -0.0018668794057 1.8515534046 -0.0055768034548 -0.0019420327737 1.8514237673 -0.0055740461225
          -0.0019530874783 1.8511691323 -0.0054818930889 -0.0019213165091 1.8510457752 -0.005514208606
          -0.0019352052894 1.8507223686 -0.005670420213 -0.0022483734207 1.8499199779 -0.0055548141532
          -0.0018851085415 1.8513985178 -0.006072107352 -0.0015540498859 1.8514661363 -0.0058479631425
          -0.0019829908941 1.8514971809 -0.0054788732115 -0.0017613592797 1.8515777605 -0.0057399461851
          -0.0017407081713 1.8516386371 -0.0056467914898 -0.0018223600061 1.8515148017 -0.0056538827992
          -0.0018127465005 1.8512201844 -0.0057376718536 -0.0015785192742 1.8508813081 -0.0054468689374
          -0.0020058005936 1.8506446351 -0.0058434098204 -0.001690432408 1.8503426285 -0.0060570436381
          -0.0019208312635 1.8511185985 -0.0060384061956 -0.0018348682347 1.8513800562 -0.006265940776
          -0.0020397205757 1.8514832164 -0.005863298145 -0.0018384261568 1.8514772654 -0.0059669289502
          -0.0017121161563 1.8515217914 -0.005821443884 -0.0016867753754 1.8513496814 -0.0057545755331
          -0.0014808382973 1.8511205583 -0.0059728261362 -0.001271632463 1.8508819322 -0.0058402024572
          -0.0014929580232 1.8505555094 -0.006256414343 -0.0014161164986 1.8500316952 -0.0060236347301
          -0.0017213258916 1.8515097365 -0.0059704510884 -0.0017335584101 1.8515304366 -0.0058894576545
          -0.0018763537727 1.8515712436 -0.0057062281346 -0.0019298754307 1.8515248646 -0.0057406448099
          -0.0022839833119 1.8515385763 -0.0060429332374 -0.00083445875001 1.8514120349 -0.0060645688674
          -0.0011831657294 1.8511739209 -0.0057553485905 -0.0012016234536 1.8509626036 -0.0057009404659
          -0.0013588160828 1.8506957915 -0.0058795354283 -0.0013609188091 1.8504275761 -0.0059610176947
          -0.0016718073806 1.8515343192 -0.0063922823179 -0.0022606603594 1.8514714112 -0.0059292236885
          -0.002726094851 1.851341202 -0.0058875806618 -0.0032411442098 1.8513165303 -0.0066514210953
          -0.0026719415801 1.8517461132 -0.0064182231561 -0.00018930473174 1.8516044595 -0.006462369147
          0.00037759185723 1.850942611 -0.0066639772261 -0.00012458827211 1.8507379026 -0.0058828884427
          -0.00059474560204 1.850628465 -0.0059241576335 -0.0011733550751 1.8504586621 -0.006377678216
          -0.0020609126765 1.851899409 -0.0057410183792 -0.0023615011087 1.8518737218 -0.0055435159343
          -0.0025750529232 1.8514071915 -0.0059681949165 -0.0026113681209 1.8512810272 -0.0067019973682
          -0.0035983859598 1.8515872468 -0.0078530149129 0.0010122167128 1.8514773556 -0.0078654585289
          -2.2896342191e-05 1.8509063899 -0.0067052881362 -4.1994413616e-05 1.8507943809 -0.005965273217
          -0.00022864214797 1.8510341504 -0.0055099227748 -0.00052214763927 1.8508006396 -0.0057161557582
          -0.0010224535942 1.8551515334 -0.0047861977739 -0.0026733212901 1.8524607953 -0.0052543917023
          -0.0029809260947 1.8518732534 -0.0060983925097 -0.0027121355222 1.8521791024 -0.0063463497689
          -0.0040862098659 1.8508952176 -0.0094280276119 0.0017391810314 1.8507178772 -0.0094841710001
          0.00031948535798 1.85178686 -0.0063408590774 0.00058768272086 1.8512414988 -0.0060820125447
          0.00028637882169 1.8516414882 -0.0051859241033 -0.0014224569709 1.8541786698 -0.0047440984988
          0.0016528566988 1.8550747536 -0.0072636557277 -0.0018543533033 1.8518509772 -0.0062259698175
          -0.0038021512978 1.8501692033 -0.0077722012546 -0.004637279133 1.8527157566 -0.0062133772242
          -0.0032666337191 1.8523630877 -0.0063669192292 0.0010795950468 1.8521982878 -0.0064312277198
          0.0024594307815 1.8523649089 -0.006148461841 0.0016391703784 1.849551602 -0.0077102440015
          -0.00043057670194 1.8510777292 -0.0061427597831 -0.0038501691718 1.8540436581 -0.0072380544883
          -0.0020909654167 1.8520277761 -0.0049904823254 -0.0019983213088 1.8515134311 -0.0048552545944
          -0.0016370383521 1.8512916441 -0.0051411618546 -0.00189224644 1.8514614319 -0.0051278197537
          -0.002101254406 1.8514955954 -0.0052621044502 -0.0022143307126 1.8513714752 -0.005165828824
          -0.002372862457 1.8511284373 -0.0051391334547 -0.0026583089204 1.8506862324 -0.0051402750788
          -0.0022982128554 1.8507074761 -0.0048265865912 -0.0021412812452 1.8510465434 -0.0049861562204
          -0.0020576000267 1.8517479083 -0.0051336835065 -0.0020063258737 1.8512278232 -0.0048034578136
          -0.0021329664789 1.8520668319 -0.0055202932002 -0.0019507704865 1.8516382615 -0.0054973190846
          -0.0019956912268 1.8514952026 -0.0054031341678 -0.0020649744977 1.8513625121 -0.0054193886662
          -0.0021144228149 1.8512613853 -0.0054903792316 -0.0019110902686 1.8514810997 -0.0055157030664
          -0.0020713301734 1.8503902567 -0.0048065512101 -0.0020011476123 1.8506717519 -0.0051102731473
          -0.0018975664188 1.8518566941 -0.0058664391905 -0.0022352100636 1.8517415702 -0.0053847024997
          -0.0018007939125 1.8516425385 -0.005579040168 -0.0018735141841 1.8516293209 -0.0055579844149
          -0.0018629825583 1.8516664739 -0.0056013718916 -0.0019762609435 1.8515503792 -0.005560886726
          -0.0019490820163 1.8512508838 -0.0055682710888 -0.0020156171102 1.8510402574 -0.0055706061501
          -0.001582658832 1.8509032693 -0.0053804337507 -0.0019439331423 1.8507957586 -0.0058795189035
          -0.0017322448406 1.8517562761 -0.0060706510112 -0.0017922365161 1.851766157 -0.005794070688
          -0.0018535175458 1.8516471457 -0.0056272842463 -0.0017279159812 1.8516604996 -0.0056653714209
          -0.0017832692915 1.8516765022 -0.0057485077469 -0.001824554212 1.8515359072 -0.0057653299629
          -0.0018359964176 1.8512910496 -0.0056601361128 -0.0017208385131 1.8510435783 -0.0056280348919
          -0.0017669286519 1.8509288494 -0.0057717900171 -0.0018575453241 1.8506804135 -0.0060764132408
          -0.0016689849526 1.8514590886 -0.0060094854145 -0.0018817581694 1.8517256897 -0.0058614880668
          -0.0018316159409 1.8515884125 -0.0057768483348 -0.0017577133505 1.8515094435 -0.005759335346
          -0.0016996885822 1.8517075841 -0.0058190370326 -0.0016585319856 1.8515501186 -0.0058523384731
          -0.0015819917045 1.8511557924 -0.0057699480673 -0.0015056601923 1.8510033082 -0.0057865248116
          -0.0014376950175 1.8508927972 -0.0058389425763 -0.0016933526055 1.850377792 -0.0060251977692
          -0.0016461527851 1.8517773864 -0.0059830163585 -0.0017420186288 1.8516958051 -0.0059092818776
          -0.0017528596035 1.8516490129 -0.0059558279024 -0.0017939086823 1.8515315547 -0.0059770233087
          -0.002172077634 1.8515821681 -0.0062493477519 -0.00093930995837 1.8514610073 -0.0062540242957
          -0.0012980457823 1.8511904871 -0.0059736273445 -0.0013402569734 1.8510604311 -0.0059528785101
          -0.001337101974 1.8508570947 -0.005887883272 -0.0014664177337 1.850705165 -0.0059921793144
          -0.0015927441848 1.8516143078 -0.0063943949386 -0.0017284712163 1.8516256057 -0.0061882557267
          -0.0018760474067 1.8516541855 -0.0058517786344 -0.0016097810916 1.8517258206 -0.0060088897378
          -0.0013531158683 1.8517426802 -0.0057794281672 -0.0014857564037 1.8516167018 -0.0058114018318
          -0.0012544405828 1.8513611141 -0.006004416538 -0.00097750189646 1.8510541313 -0.0058406831233
          -0.0011107970684 1.8507775628 -0.0061808000824 -0.0012659629803 1.8505355441 -0.0063928803227
          -0.0023912118357 1.8510280706 -0.0058439137665 -0.0016127930587 1.8520598906 -0.0059002112566
          -0.0018062584742 1.8517320491 -0.0060746239733 -0.0019426129389 1.8516195165 -0.0063070366037
          -0.0020437795515 1.8517409155 -0.0063022604196 -0.00059371373037 1.8516058049 -0.0063088153763
          -0.00067487405632 1.851247163 -0.0063130675909 -0.0008139396532 1.8511254656 -0.0060661105523
          -0.00099851370284 1.8512249066 -0.0058818136348 -0.00022597143769 1.8499456556 -0.0058377176609
          -0.002174808299 1.8519254768 -0.0055467530941 -0.0026690488779 1.8520432071 -0.0059021625058
          -0.0016480873037 1.8513000929 -0.0072246844709 -0.00061702640009 1.8509192992 -0.0071959078358
          -0.0018029460029 1.8503472481 -0.0078558881863 -0.00061319375952 1.8502138943 -0.0078455470189
          -0.0017602777988 1.8505395403 -0.0072031903886 -0.00075098724161 1.8506867543 -0.0072146302514
          0.00032402581574 1.8511632088 -0.0059067230804 -0.00013897255528 1.8507993237 -0.005550436676
          -0.0062957594801 1.8492612333 -0.0072474979747 -0.0030256747255 1.8528093765 -0.0059542604471
          0.00012464981376 1.853165105 -0.0061088388507 0.00057796631597 1.8512646638 -0.0072834314023
          0.0017268344523 1.8495749642 -0.006780754088 -0.0039170242138 1.8493852039 -0.0067506673087
          -0.0026971159118 1.8509046153 -0.0072429434141 -0.0022534362152 1.8526194685 -0.0060303168273
          0.00096794373427 1.8519341352 -0.0059032930005 0.0042652718192 1.8479771541 -0.0071794127776
          -0.0023293710801 1.85240376 -0.0050960643384 -0.0021546698704 1.8519510212 -0.0047389855738
          -0.0015912448745 1.8516566871 -0.0052569981273 -0.0021556906016 1.8520569456 -0.0053427790817
          -0.0020742904513 1.8516733945 -0.0051095844687 -0.0022355613033 1.8515708598 -0.0050996535876
          -0.0021351435109 1.8516874385 -0.0053367599617 -0.0026819276077 1.851061938 -0.0052490048983
          -0.0021442257761 1.8511432249 -0.0047272440481 -0.0019047432326 1.8513987919 -0.0050781548078
          -0.002320925624 1.8522521726 -0.005042497553 -0.0021601567022 1.8521402949 -0.0052935802361
          -0.0018753054251 1.8516603044 -0.0053312674839 -0.0019143034366 1.8517198048 -0.0053442322665
          -0.002007422553 1.8516769742 -0.0053723645964 -0.0020924396966 1.851542292 -0.0053444497272
          -0.0021562492007 1.8513440665 -0.0053299930495 -0.002189349973 1.8510648102 -0.0053290535401
          -0.001896347352 1.8513090837 -0.0052795574446 -0.001735604676 1.8512116921 -0.005059559301
          -0.0022374818666 1.8523954232 -0.0055525071757 -0.0018020002392 1.8517928764 -0.0055222477238
          -0.0018407549171 1.8517668675 -0.005479417931 -0.0018102696303 1.8517842725 -0.0055290718367
          -0.0019077412266 1.851775863 -0.0055530499729 -0.0019242295189 1.851651163 -0.0055496987998
          -0.0020119451322 1.8514201639 -0.0055193644774 -0.0019776900416 1.8511661132 -0.0054765449321
          -0.0020024882345 1.8509592465 -0.005505933772 -0.0015904260059 1.8513166538 -0.0055417820411
          -0.0018968046317 1.8518421164 -0.0056535326954 -0.0018006351141 1.8518259568 -0.0056711437607
          -0.0017498969801 1.8517827869 -0.0056171621198 -0.0017828552109 1.8517861915 -0.0057158099638
          -0.0017664499345 1.8517491189 -0.0056914286793 -0.0018220857791 1.8516098183 -0.0057067766777
          -0.0018130939721 1.8514234556 -0.0056909246628 -0.0018351186261 1.8511921149 -0.0056080253313
          -0.0017857107665 1.8509933525 -0.0056663542442 -0.0016729704889 1.8507726867 -0.0056309594018
          -0.0017746486895 1.8515180975 -0.0058586330477 -0.0018314709522 1.8517945685 -0.0058035647126