<?xml version="1.0"?>
<VTKFile type="UnstructuredGrid" version="0.1" byte_order="LittleEndian" compressor="vtkZLibDataCompressor">
  <UnstructuredGrid>
    <FieldData>
      <DataArray type="Float64" Name="TIME" NumberOfTuples="1" format="ascii" RangeMin="0.27554824511" RangeMax="0.27554824511">
        0.27554824511
      </DataArray>
    </FieldData>
    <Piece NumberOfPoints="1000" NumberOfCells="0">
      <PointData>
        <DataArray type="Float64" Name="Damage" format="ascii" RangeMin="0" RangeMax="0.49719101124">
          0 0 0 0 0 0
          0 0 0 0 0 0.027932960894
          0 0 0 0 0 0
          0.027932960894 0 0 0.055084745763 0.071428571429 0.040345821326
          0.014164305949 0.012987012987 0.040345821326 0.071428571429 0.055084745763 0
          0 0.067669172932 0.11239193084 0.1074168798 0.037688442211 0.034562211982
          0.1074168798 0.11239193084 0.067669172932 0 0 0.074349442379
          0.16147308782 0.16834170854 0.12376237624 0.11286681716 0.16834170854 0.16147308782
          0.074349442379 0 0 0.084459459459 0.2 0.25806451613
          0.33860045147 0.39211618257 0.25806451613 0.2 0.084459459459 0
          0 0.093984962406 0.25360230548 0.36061381074 0.41959798995 0.46774193548
          0.36061381074 0.25360230548 0.093984962406 0 0 0.10593220339
          0.31493506494 0.40057636888 0.4447592068 0.49090909091 0.40057636888 0.31493506494
          0.10593220339 0 0 0.16759776536 0.3686440678 0.43984962406
          0.44609665428 0.49662162162 0.43984962406 0.3686440678 0.16759776536 0
          0 0.1677852349 0.36734693878 0.43891402715 0.44642857143 0.49593495935
          0.43891402715 0.36734693878 0.1677852349 0 0 0
          0 0 0 0 0 0
          0 0 0 0.027906976744 0 0
          0 0 0 0 0.027906976744 0
          0 0.056338028169 0.072776280323 0.040669856459 0.014117647059 0.012931034483
          0.040669856459 0.072776280323 0.056338028169 0 0 0.06875
          0.11483253589 0.10828025478 0.0375782881 0.034416826004 0.10828025478 0.11483253589
          0.06875 0 0 0.074303405573 0.16235294118 0.16910229645
          0.12371134021 0.11257035647 0.16910229645 0.16235294118 0.074303405573 0
          0 0.084269662921 0.20043103448 0.25812619503 0.33771106942 0.39242685026
          0.25812619503 0.20043103448 0.084269662921 0 0 0.09375
          0.25358851675 0.36093418259 0.41962421712 0.46845124283 0.36093418259 0.25358851675
          0.09375 0 0 0.10563380282 0.3153638814 0.4019138756
          0.44470588235 0.49137931034 0.4019138756 0.3153638814 0.10563380282 0
          0 0.16744186047 0.36971830986 0.440625 0.44582043344 0.49719101124
          0.440625 0.36971830986 0.16744186047 0 0 0.16759776536
          0.3686440678 0.43984962406 0.44609665428 0.49662162162 0.43984962406 0.3686440678
          0.16759776536 0 0 0 0 0
          0 0 0 0 0 0
          0 0.024647887324 0 0 0 0
          0 0 0.024647887324 0 0 0.051212938005
          0.06875 0.038817005545 0.012635379061 0.011666666667 0.038817005545 0.06875
          0.051212938005 0 0 0.064593301435 0.10905730129 0.10491803279
          0.036858974359 0.034023668639 0.10491803279 0.10905730129 0.064593301435 0
          0 0.070588235294 0.15523465704 0.16506410256 0.12283464567 0.11271676301
          0.16506410256 0.15523465704 0.070588235294 0 0 0.081896551724
          0.19333333333 0.25443786982 0.33959537572 0.38985313752 0.25443786982 0.19333333333
          0.081896551724 0 0 0.093301435407 0.24768946396 0.35573770492
          0.41987179487 0.46449704142 0.35573770492 0.24768946396 0.093301435407 0
          0 0.10781671159 0.30833333333 0.39556377079 0.4440433213 0.48666666667
          0.39556377079 0.30833333333 0.10781671159 0 0 0.16197183099
          0.35579514825 0.43062200957 0.44470588235 0.49137931034 0.43062200957 0.35579514825
          0.16197183099 0 0 0.16101694915 0.3538961039 0.42939481268
          0.4447592068 0.49090909091 0.42939481268 0.3538961039 0.16101694915 0
          0 0 0 0 0 0
          0 0 0 0 0 0.025
          0 0 0 0 0 0
          0.025 0 0 0.05023923445 0.068391866913 0.039344262295
          0.012820512821 0.011834319527 0.039344262295 0.068391866913 0.05023923445 0
          0 0.063694267516 0.10819672131 0.10465116279 0.036984352774 0.034120734908
          0.10465116279 0.10819672131 0.063694267516 0 0 0.070981210856
          0.15544871795 0.16500711238 0.12290502793 0.11282051282 0.16500711238 0.15544871795
          0.070981210856 0 0 0.082217973231 0.19378698225 0.25459317585
          0.33974358974 0.38981042654 0.25459317585 0.19378698225 0.082217973231 0
          0 0.093418259023 0.24918032787 0.35610465116 0.41963015647 0.46456692913
          0.35610465116 0.24918032787 0.093418259023 0 0 0.10765550239
          0.30868761553 0.39508196721 0.44391025641 0.48668639053 0.39508196721 0.30868761553
          0.10765550239 0 0 0.1625 0.35645933014 0.43099787686
          0.44467640919 0.4913957935 0.43099787686 0.35645933014 0.1625 0
          0 0.16165413534 0.35446685879 0.42966751918 0.44472361809 0.49078341014
          0.42966751918 0.35446685879 0.16165413534 0 0 0
          0 0 0 0 0 0
          0 0 0 0.02786377709 0 0
          0 0 0 0 0.02786377709 0
          0 0.054117647059 0.070397111913 0.040064102564 0.014173228346 0.013005780347
          0.040064102564 0.070397111913 0.054117647059 0 0 0.066805845511
          0.11057692308 0.106685633 0.037709497207 0.034615384615 0.106685633 0.11057692308
          0.066805845511 0 0 0.074226804124 0.16062992126 0.16759776536
          0.12362637363 0.11292346299 0.16759776536 0.16062992126 0.074226804124 0
          0 0.084427767355 0.19942196532 0.25769230769 0.33877038896 0.39145496536
          0.25769230769 0.19942196532 0.084427767355 0 0 0.093945720251
          0.25320512821 0.35988620199 0.41899441341 0.46666666667 0.35988620199 0.25320512821
          0.093945720251 0 0 0.10588235294 0.31407942238 0.39903846154
          0.44409448819 0.48988439306 0.39903846154 0.31407942238 0.10588235294 0
          0 0.16718266254 0.36705882353 0.43841336117 0.44536082474 0.49530956848
          0.43841336117 0.36705882353 0.16718266254 0 0 0.16728624535
          0.36543909348 0.43718592965 0.44554455446 0.49435665914 0.43718592965 0.36543909348
          0.16728624535 0 0 0 0 0
          0 0 0 0 0 0
          0 0.025280898876 0 0 0 0
          0 0 0.025280898876 0 0 0.049568965517
          0.066666666667 0.038461538462 0.013005780347 0.012016021362 0.038461538462 0.066666666667
          0.049568965517 0 0 0.06309751434 0.1050295858 0.10367454068
          0.037179487179 0.034360189573 0.10367454068 0.1050295858 0.06309751434 0
          0 0.071294559099 0.15462427746 0.1641025641 0.12296110414 0.11316397229
          0.1641025641 0.15462427746 0.071294559099 0 0 0.082616179002
          0.19359145527 0.25473933649 0.34064665127 0.38930481283 0.25473933649 0.19359145527
          0.082616179002 0 0 0.093690248566 0.24852071006 0.35564304462
          0.41923076923 0.46327014218 0.35564304462 0.24852071006 0.093690248566 0
          0 0.10775862069 0.30833333333 0.39349112426 0.4436416185 0.48598130841
          0.39349112426 0.30833333333 0.10775862069 0 0 0.16292134831
          0.35560344828 0.43021032505 0.44465290807 0.49053356282 0.43021032505 0.35560344828
          0.16292134831 0 0 0.16216216216 0.35324675325 0.42857142857
          0.44469525959 0.48962655602 0.42857142857 0.35324675325 0.16216216216 0
          0 0 0 0 0 0
          0 0 0 0 0 0.025
          0 0 0 0 0 0
          0.025 0 0 0.05023923445 0.068391866913 0.039344262295
          0.012820512821 0.011834319527 0.039344262295 0.068391866913 0.05023923445 0
          0 0.063694267516 0.10819672131 0.10465116279 0.036984352774 0.034120734908
          0.10465116279 0.10819672131 0.063694267516 0 0 0.070981210856
          0.15544871795 0.16500711238 0.12290502793 0.11282051282 0.16500711238 0.15544871795
          0.070981210856 0 0 0.082217973231 0.19378698225 0.25459317585
          0.33974358974 0.38981042654 0.25459317585 0.19378698225 0.082217973231 0
          0 0.093418259023 0.24918032787 0.35610465116 0.41963015647 0.46456692913
          0.35610465116 0.24918032787 0.093418259023 0 0 0.10765550239
          0.30868761553 0.39508196721 0.44391025641 0.48668639053 0.39508196721 0.30868761553
          0.10765550239 0 0 0.1625 0.35645933014 0.43099787686
          0.44467640919 0.4913957935 0.43099787686 0.35645933014 0.1625 0
          0 0.16165413534 0.35446685879 0.42966751918 0.44472361809 0.49078341014
          0.42966751918 0.35446685879 0.16165413534 0 0 0
          0 0 0 0 0 0
          0 0 0 0.024647887324 0 0
          0 0 0 0 0.024647887324 0
          0 0.051212938005 0.06875 0.038817005545 0.012635379061 0.011666666667
          0.038817005545 0.06875 0.051212938005 0 0 0.064593301435
          0.10905730129 0.10491803279 0.036858974359 0.034023668639 0.10491803279 0.10905730129
          0.064593301435 0 0 0.070588235294 0.15523465704 0.16506410256
          0.12283464567 0.11271676301 0.16506410256 0.15523465704 0.070588235294 0
          0 0.081896551724 0.19333333333 0.25443786982 0.33959537572 0.38985313752
          0.25443786982 0.19333333333 0.081896551724 0 0 0.093301435407
          0.24768946396 0.35573770492 0.41987179487 0.46449704142 0.35573770492 0.24768946396
          0.093301435407 0 0 0.10781671159 0.30833333333 0.39556377079
          0.4440433213 0.48666666667 0.39556377079 0.30833333333 0.10781671159 0
          0 0.16197183099 0.35579514825 0.43062200957 0.44470588235 0.49137931034
          0.43062200957 0.35579514825 0.16197183099 0 0 0.16101694915
          0.3538961039 0.42939481268 0.4447592068 0.49090909091 0.42939481268 0.3538961039
          0.16101694915 0 0 0 0 0
          0 0 0 0 0 0
          0 0.027906976744 0 0 0 0
          0 0 0.027906976744 0 0 0.056338028169
          0.072776280323 0.040669856459 0.014117647059 0.012931034483 0.040669856459 0.072776280323
          0.056338028169 0 0 0.06875 0.11483253589 0.10828025478
          0.0375782881 0.034416826004 0.10828025478 0.11483253589 0.06875 0
          0 0.074303405573 0.16235294118 0.16910229645 0.12371134021 0.11257035647
          0.16910229645 0.16235294118 0.074303405573 0 0 0.084269662921
          0.20043103448 0.25812619503 0.33771106942 0.39242685026 0.25812619503 0.20043103448
          0.084269662921 0 0 0.09375 0.25358851675 0.36093418259
          0.41962421712 0.46845124283 0.36093418259 0.25358851675 0.09375 0
          0 0.10563380282 0.3153638814 0.4019138756 0.44470588235 0.49137931034
          0.4019138756 0.3153638814 0.10563380282 0 0 0.16744186047
          0.36971830986 0.440625 0.44582043344 0.49719101124 0.440625 0.36971830986
          0.16744186047 0 0 0.16759776536 0.3686440678 0.43984962406
          0.44609665428 0.49662162162 0.43984962406 0.3686440678 0.16759776536 0
          0 0 0 0 0 0
          0 0 0 0 0 0.027932960894
          0 0 0 0 0 0
          0.027932960894 0 0 0.055084745763 0.071428571429 0.040345821326
          0.014164305949 0.012987012987 0.040345821326 0.071428571429 0.055084745763 0
          0 0.067669172932 0.11239193084 0.1074168798 0.037688442211 0.034562211982
          0.1074168798 0.11239193084 0.067669172932 0 0 0.074349442379
          0.16147308782 0.16834170854 0.12376237624 0.11286681716 0.16834170854 0.16147308782
          0.074349442379 0 0 0.084459459459 0.2 0.25806451613
          0.33860045147 0.39211618257 0.25806451613 0.2 0.084459459459 0
          0 0.093984962406 0.25360230548 0.36061381074 0.41959798995 0.46774193548
          0.36061381074 0.25360230548 0.093984962406 0 0 0.10593220339
          0.31493506494 0.40057636888 0.4447592068 0.49090909091 0.40057636888 0.31493506494
          0.10593220339 0 0 0.16759776536 0.3686440678 0.43984962406
          0.44609665428 0.49662162162 0.43984962406 0.3686440678 0.16759776536 0
          0 0.1677852349 0.36734693878 0.43891402715 0.44642857143 0.49593495935
          0.43891402715 0.36734693878 0.1677852349 0
        </DataArray>
        <DataArray type="Float64" Name="Displacement" NumberOfComponents="3" format="ascii" RangeMin="1.340951485" RangeMax="1.3653063529">
          -0.0097354870314 1.3603369898 -0.020563093745 -0.0078907955981 1.3542417556 -0.019619740413
          -0.0080762826137 1.352454874 -0.017633605841 -0.0077315482574 1.3530008366 -0.01901344123
          -0.0077774219346 1.3530004698 -0.019231648791 -0.0077856717908 1.3531075864 -0.020125129069
          -0.0079836767271 1.351705882 -0.019023350451 -0.0075082831466 1.3504406837 -0.017624056356
          -0.0076863606265 1.3513739183 -0.019629919618 -0.0057084931655 1.3568983193 -0.0204244993
          -0.0082216501648 1.3546163576 -0.018923938891 -0.0070590065434 1.3554503807 -0.020780198306
          -0.0073670144266 1.3529228544 -0.019234606063 -0.0066340301945 1.3509469761 -0.018662104786
          -0.0072365265932 1.3510820763 -0.018628238117 -0.0073606337424 1.3508912666 -0.018422709118
          -0.0083467238312 1.349854338 -0.018760502643 -0.0075481965416 1.3508499541 -0.019172690959
          -0.0077476333929 1.3525456553 -0.020725550223 -0.0065969434671 1.3508886096 -0.018845566693
          -0.0065238328159 1.3537332457 -0.020365031998 -0.0068944256299 1.3532073583 -0.020491130063
          -0.0073435659631 1.3531335595 -0.020480392253 -0.0067333007585 1.3526049398 -0.020502802808
          -0.0069162862601 1.3532091367 -0.02125439762 -0.0073170720744 1.353142082 -0.021440929255
          -0.0072032981841 1.3515363437 -0.020485499626 -0.0068027243847 1.3510900322 -0.020496894529
          -0.0071489495411 1.3504117679 -0.020429919395 -0.0073654831564 1.3502188915 -0.02021980994
          -0.0063128105465 1.3543131148 -0.021153582526 -0.0061160683489 1.3534523244 -0.020498616056
          -0.0067119265791 1.3524078734 -0.020784869847 -0.0066494172593 1.3528650436 -0.020920717871
          -0.0064392549433 1.3521526105 -0.021046405215 -0.006525894943 1.3516331082 -0.021042603589
          -0.0067757878502 1.3518144274 -0.021128616407 -0.0065385747272 1.3504996885 -0.020804931948
          -0.0071704650637 1.3506518669 -0.020497410273 -0.0069294765354 1.3507336729 -0.021101998798
          -0.0053010197712 1.3533159982 -0.022201353385 -0.0058445670234 1.3530931512 -0.021800264809
          -0.0064170785542 1.3530151377 -0.021155967999 -0.0060350931217 1.3526081723 -0.021526547544
          -0.006334368701 1.3524110943 -0.021379813055 -0.0062855857146 1.3517770341 -0.021249766531
          -0.0064305415326 1.3513873515 -0.021596304337 -0.0060509187225 1.351083944 -0.021152888595
          -0.0066755300477 1.3501842934 -0.021780015533 -0.0071398469362 1.3497739331 -0.022086759558
          -0.004958251363 1.3536255308 -0.022511148364 -0.005473450758 1.353302605 -0.022535206818
          -0.0054900928791 1.3527054628 -0.022553761536 -0.0053554363066 1.352326451 -0.022395264634
          -0.0041718817224 1.3530588649 -0.020564130593 -0.0078257331773 1.3525380879 -0.020735423654
          -0.0063744884933 1.3512670162 -0.022498938882 -0.0062000346636 1.3507889681 -0.022478579209
          -0.0062362827575 1.3504178463 -0.022554359546 -0.006698952067 1.3499589299 -0.022344328738
          -0.0060295129807 1.3532860813 -0.022338677834 -0.0051361538896 1.353009649 -0.023373264828
          -0.0054109952885 1.3529488198 -0.023032166234 -0.0051223462709 1.3521751442 -0.022702064628
          -0.0028189835135 1.3527960427 -0.019515219144 -0.0081085381992 1.3524713486 -0.019567217638
          -0.0057616369446 1.3510526672 -0.022748598936 -0.0055028043091 1.3509495569 -0.023005180004
          -0.0057380770557 1.3501860553 -0.023351734741 -0.0047829625445 1.3496872107 -0.022143023479
          -0.0046125033544 1.3550822829 -0.022772234349 -0.0068308986966 1.3531592159 -0.022233271196
          -0.0073054849766 1.3522038239 -0.023690153424 -0.0064306343476 1.3518947944 -0.024327852372
          -0.0050889956045 1.3512864516 -0.024069218111 -0.0049307308785 1.3508620366 -0.024078670905
          -0.0035732885621 1.350618072 -0.024354008503 -0.0027194539778 1.3501507835 -0.023640163643
          -0.0033188672802 1.3502855028 -0.022239149861 -0.0055771980815 1.3515001144 -0.022729784978
          -0.0054964267281 1.3519523534 -0.025327450382 -0.0051889279794 1.354978892 -0.023928827384
          -0.002714557665 1.3528249217 -0.02452232863 -0.0069616928579 1.352705844 -0.025054116042
          -0.0024205285197 1.3526295951 -0.023479297754 -0.0070451982914 1.3521557032 -0.023261975949
          -0.0023050776951 1.3514938488 -0.024915039521 -0.0066689377059 1.3508178832 -0.024459331699
          -0.0041501596638 1.3521184694 -0.02394834831 -0.0036193309404 1.3482993456 -0.025130976486
          -0.009884297365 1.3444002638 -0.027865117758 -0.007724806873 1.3540035467 -0.020209721288
          -0.0071572891065 1.3542625096 -0.022095916533 -0.0042953344358 1.3512421976 -0.025638735072
          -0.00030923224403 1.3495967223 -0.02545406568 -0.0082757012525 1.349485523 -0.025195304636
          -0.0043182442543 1.3500820389 -0.025585889194 -0.0012801462273 1.3522757651 -0.022022534269
          -0.00081350621874 1.3511810465 -0.020250972795 0.0011120839973 1.3406556403 -0.02814432013
          -0.0076199109964 1.3546174228 -0.019397679556 -0.0088756014575 1.3546235636 -0.018597992494
          -0.0077731490615 1.3537201999 -0.019316025214 -0.0073742927333 1.3519275491 -0.018130674803
          -0.0076926206163 1.3517373646 -0.018053516655 -0.0077257174999 1.351431968 -0.017969133104
          -0.0084753392847 1.3507971011 -0.018290114739 -0.0079208366798 1.3516456459 -0.019240299701
          -0.006784194869 1.3517437462 -0.018443429637 -0.0080195811323 1.3510035391 -0.019212553484
          -0.0069045143984 1.3547730345 -0.020597482601 -0.0070212957655 1.3543946031 -0.019946040352
          -0.0075870894076 1.3533997643 -0.019221128964 -0.0076940670378 1.3530956882 -0.019444353568
          -0.0074323424608 1.3521165622 -0.01912145041 -0.0075369822049 1.3521376029 -0.01942260548
          -0.0071563809979 1.3517649403 -0.019239180543 -0.0073285481697 1.351344939 -0.019222017011
          -0.0078693908961 1.3516330858 -0.019965473706 -0.0079989340742 1.3511303934 -0.020537207041
          -0.007429027499 1.3542757047 -0.020695529074 -0.006834664239 1.3539647084 -0.020436516654
          -0.0070378723562 1.3535473399 -0.020371450027 -0.0069286953064 1.3530602555 -0.020240272334
          -0.0070363223524 1.3527470353 -0.020267176089 -0.0070226363261 1.352356222 -0.020204451366
          -0.0071106713882 1.3518794713 -0.020240646666 -0.0070240438481 1.3515527785 -0.020317423892
          -0.0072419889148 1.3511513867 -0.020410626937 -0.0066435736789 1.3506951429 -0.0206203049
          -0.0064934404679 1.353654577 -0.020816928736 -0.0064675525615 1.3539280491 -0.021226876516
          -0.006669383763 1.3533908531 -0.020665667896 -0.0067076399626 1.3529981403 -0.020512800642
          -0.0066424462064 1.3527971404 -0.020946278415 -0.006632416301 1.3523395224 -0.020776057488
          -0.0065595474546 1.3518044591 -0.020510364984 -0.0066153488146 1.3514432997 -0.020696354764
          -0.006811548491 1.3511253266 -0.021222299969 -0.006841629419 1.3501110585 -0.020791710146
          -0.0066083208861 1.3549075272 -0.021988538811 -0.0060209848603 1.3538403458 -0.022068139351
          -0.0065109181934 1.3533894795 -0.021260865139 -0.0061446750249 1.3532738103 -0.021277595529
          -0.0061309503871 1.3529206003 -0.021290885427 -0.0062781530509 1.3525290246 -0.021361340294
          -0.006346332442 1.3521036617 -0.021271710731 -0.0059828902839 1.3514130113 -0.021217010489
          -0.0064882235231 1.3510729552 -0.022036477699 -0.0059378523298 1.3512503601 -0.021978018006
          -0.0064569085324 1.3538265335 -0.021955394622 -0.0058654714217 1.3537584233 -0.022572894189
          -0.0052778325915 1.353562366 -0.022671410188 -0.0059644780391 1.3531293378 -0.022203462169
          -0.0057705246819 1.3527741735 -0.02200901764 -0.0059683022777 1.3524236025 -0.022015164485
          -0.0057796223026 1.3519792114 -0.022088002474 -0.0064490951809 1.351602425 -0.022662112715
          -0.0058314196722 1.3509645741 -0.022563092707 -0.0052762034012 1.3502897269 -0.021939530568
          -0.0056265604378 1.3541080834 -0.023362201981 -0.0057547638954 1.3536674065 -0.023484345656
          -0.0068191149196 1.3530920141 -0.022869944119 -0.0056366865954 1.3532519899 -0.022674424991
          -0.0061906441199 1.3529957328 -0.023225601214 -0.0047659871195 1.3524381317 -0.023236338168
          -0.0052807411192 1.3520464842 -0.022687789508 -0.0041233221182 1.3511102771 -0.022850605562
          -0.0051763200379 1.3508781292 -0.023435466304 -0.0052701287954 1.3505602264 -0.023298553256
          -0.0036608592984 1.3551025142 -0.025338468715 -0.0051897732109 1.3537571454 -0.023564316364
          -0.0055598564891 1.3533891639 -0.023414184907 -0.0054562761621 1.3527606047 -0.023786751888
          -0.0053002697105 1.352732452 -0.023843795938 -0.0047426551484 1.352399394 -0.023842103465
          -0.0046666543788 1.3515748413 -0.023733930947 -0.0044604565615 1.3513747044 -0.02337238822
          -0.004945020581 1.3509819568 -0.02355782449 -0.0065334531012 1.3514940203 -0.025318311787
          -0.0056979030183 1.35465566 -0.021469784397 -0.0048377331859 1.3539041879 -0.023964719236
          -0.0047468351884 1.3529905479 -0.024268351502 -0.0050719009268 1.3522042047 -0.025306482379
          -0.0047241958088 1.35283495 -0.023399564686 -0.004622637089 1.3523874852 -0.023378273351
          -0.0042447323142 1.3509798774 -0.025300742218 -0.0045345632036 1.3510113865 -0.024238484712
          -0.0044947785224 1.3511225861 -0.023946373773 -0.0036155260405 1.351031255 -0.021436267948
          -0.010258384665 1.3517282764 -0.01864098486 -0.00062728489135 1.3564503723 -0.023254309354
          -0.0016110961552 1.3538904486 -0.024768754181 -0.0048288797877 1.3528223571 -0.025586047928
          -0.0068175663152 1.353609052 -0.023656470001 -0.00159581944 1.3531929658 -0.023644024388
          -0.0036541937536 1.3517506325 -0.025504155642 -0.0069389707603 1.3519610391 -0.024748125109
          -0.0078809044763 1.3538649897 -0.023095936586 0.0016733217505 1.3482964761 -0.018500899215
          -0.0085756966542 1.3551091707 -0.019480317213 -0.0079586360325 1.3545340912 -0.018980265454
          -0.0079749827643 1.353963938 -0.01909018064 -0.0078540235845 1.3542955454 -0.019826377726
          -0.0078363284825 1.3529385678 -0.018786597447 -0.0076689764143 1.3531366386 -0.019175390158
          -0.0077338613061 1.3531417053 -0.019805361641 -0.0077004025138 1.3519882932 -0.019104349093
          -0.0076538493797 1.3518029117 -0.018999644569 -0.0070361966877 1.3516146823 -0.019412616326
          -0.0078353813066 1.3551949571 -0.019634585314 -0.0073356138795 1.3540514957 -0.019696822982
          -0.0074870805704 1.3541967202 -0.019713002478 -0.007301488524 1.3536000976 -0.01969219238
          -0.0074246363921 1.3533608559 -0.019752291743 -0.0074884571498 1.3530726362 -0.019775711739
          -0.0076099047439 1.3524287309 -0.019719117459 -0.0073757587982 1.3522443097 -0.019696076718
          -0.0075855056473 1.3512387214 -0.019670016286 -0.0069741825157 1.3517367672 -0.019570018508
          -0.0069808685867 1.3550051681 -0.020758924585 -0.0062535778917 1.3542818714 -0.020718555878
          -0.0069424945143 1.3541672328 -0.0203721539 -0.0070134643779 1.3537125562 -0.020335822524
          -0.0070554739554 1.3533953641 -0.020354984006 -0.0069678646675 1.3529143388 -0.020408789712
          -0.0070603533633 1.3525329614 -0.020294170976 -0.0071344119753 1.3521715517 -0.020318628287
          -0.0078236134788 1.3515152012 -0.020695630248 -0.0071551044135 1.3514566253 -0.020706405598
          -0.0067958695621 1.3549558736 -0.021005079206 -0.0068448295709 1.3544688238 -0.020915994052
          -0.006724470742 1.354143862 -0.020935370208 -0.006655414509 1.35377838 -0.020956131757
          -0.0066553910258 1.3534635311 -0.020944515364 -0.0066908102234 1.3530452517 -0.020901637797
          -0.0066718522897 1.352565647 -0.020940592876 -0.006548613487 1.3521481302 -0.020882654621
          -0.0065031856985 1.351674965 -0.020921032637 -0.0064782223996 1.3514091617 -0.020940046893
          -0.0066889481916 1.3550782897 -0.021446179863 -0.0063359252242 1.3544964936 -0.021751960228
          -0.0064225840817 1.3541156256 -0.021545775148 -0.0062797823171 1.3537830253 -0.021542518045
          -0.0062934133423 1.3534370029 -0.02150818191 -0.0062451932861 1.3530763284 -0.021508328864
          -0.0062510569008 1.3525597792 -0.021514278051 -0.0060726037838 1.3521258428 -0.021520923975
          -0.0061597284471 1.3517061127 -0.021720434635 -0.0058509374697 1.3515003371 -0.021407193607
          -0.0066503648311 1.3545182348 -0.021818997231 -0.0062239996019 1.3544605664 -0.022191548443
          -0.0061016468613 1.3541052522 -0.022261539116 -0.0061045429206 1.3538497431 -0.022209529385
          -0.0060285410927 1.3535266443 -0.022041249308 -0.0057238415678 1.3531167943 -0.02205357813
          -0.0056001223027 1.3527207685 -0.022188851486 -0.0056121854196 1.3521371005 -0.022231800888
          -0.0054667036876 1.3516640525 -0.022152367874 -0.0050407777585 1.3509054106 -0.021752983816
          -0.0065402050948 1.3545186448 -0.022241773324 -0.0053022284708 1.3545296967 -0.02314222549
          -0.0055549844365 1.3541043526 -0.022830828392 -0.0059382905109 1.3536893508 -0.022978183762
          -0.0054966870987 1.3534109241 -0.022628751155 -0.0053992263707 1.3529406242 -0.022668838054
          -0.0050120852582 1.3524999181 -0.022903865966 -0.0053607725973 1.3520914109 -0.022774202427
          -0.0056140062492 1.3517379233 -0.023101581176 -0.0043798516042 1.3509156832 -0.022149172976
          -0.0054904803763 1.3550844978 -0.022988360803 -0.0054749005637 1.3545912799 -0.02323656664
          -0.0056160257154 1.3539788889 -0.023515612664 -0.005127601229 1.3535785138 -0.023569472517
          -0.005147310276 1.353214999 -0.023345696653 -0.0049441052793 1.3528077522 -0.023392756056
          -0.0049838045201 1.3523595835 -0.02356057799 -0.0045392228467 1.3519825817 -0.023477434091
          -0.0046429131304 1.3518001982 -0.023199878325 -0.0046891741166 1.3515421692 -0.022940180445
          -0.0062911835845 1.3542473004 -0.02355636021 -0.0049915039215 1.3545421177 -0.024292576862
          -0.004176630395 1.3538767881 -0.024515075139 -0.0040167363393 1.3529481729 -0.024289085631
          -0.0042012846658 1.3529735385 -0.023583943029 -0.005146538259 1.3525954991 -0.023557519792
          -0.005240566767 1.3517658623 -0.024286336345 -0.0050774525642 1.3518791614 -0.024486379966
          -0.0043465286104 1.3517101853 -0.024262621614 -0.0030074280183 1.3505192714 -0.023531452032
          -0.0062422005885 1.352564905 -0.024694877237 -0.0036903190326 1.3552285201 -0.024863358213
          -0.0014262615587 1.3546544972 -0.024326020997 -0.00075403784407 1.3520203795 -0.025243095483
          -0.0069891956304 1.3528156371 -0.025505193209 -0.0016012880873 1.3523240037 -0.025493161568
          -0.0078378733954 1.3507851267 -0.025228234601 -0.007113024272 1.3526894264 -0.024358773003
          -0.0047647681589 1.3523850965 -0.024834541426 -0.0021883829778 1.3488508417 -0.024626847269
          -0.0075556281358 1.3541426506 -0.019692414428 -0.0073347453471 1.3549386489 -0.019991345834
          -0.00827168499 1.3548992558 -0.019083178533 -0.0082298627829 1.354692566 -0.019491378178
          -0.0078862458785 1.3536676049 -0.0190151943 -0.0078906003204 1.3534008614 -0.019039319473
          -0.0074544282598 1.3535136712 -0.019496634498 -0.007381527412 1.3528946026 -0.018997750411
          -0.008440616315 1.3522132489 -0.019915049364 -0.0082550678207 1.3505129898 -0.019637375553
          -0.0067806688752 1.3552107184 -0.019893330147 -0.007774891556 1.3552807101 -0.01973828913
          -0.0075713769501 1.3549939388 -0.019943384568 -0.0074457862518 1.3541933349 -0.019778563967
          -0.0074698269841 1.3540330021 -0.019877218627 -0.0074535713407 1.3535652095 -0.019829282786
          -0.0074769697157 1.3530015987 -0.019773079299 -0.0072994167967 1.3530220418 -0.01994459877
          -0.0071122490757 1.3525183797 -0.019699939926 -0.0081210918842 1.3516352552 -0.019872403569
          -0.0070765317454 1.3556055642 -0.020764920701 -0.0074441713229 1.3553443417 -0.020397613913
          -0.007120040089 1.3548327768 -0.020395307652 -0.0070949208717 1.3543798522 -0.020505232307
          -0.0070896423367 1.3539328125 -0.020502495413 -0.0070822764918 1.3535764149 -0.020455354876
          -0.0070368397494 1.3532106712 -0.020450278671 -0.0069965692757 1.3528365671 -0.020388373074
          -0.0066501631187 1.3525639016 -0.020377427405 -0.0069640604094 1.3520786232 -0.02071795445
          -0.0070271024349 1.3558151309 -0.021080193328 -0.006627112027 1.3551521572 -0.021166122386
          -0.0067335565652 1.3548013661 -0.021098433618 -0.0067133081681 1.3545058421 -0.020971782648
          -0.0066036053177 1.354104073 -0.021105664432 -0.0066643417909 1.3536058496 -0.021049794479
          -0.0065786392236 1.3533189858 -0.020955984368 -0.0065888206893 1.3528273563 -0.021046125665
          -0.0066430963345 1.3523752074 -0.021122218443 -0.0063657849464 1.3521952248 -0.021096112556
          -0.0063273659887 1.3554176944 -0.021781534518 -0.0063698177049 1.3552180553 -0.021694177948
          -0.0064760711455 1.3548580687 -0.021639025115 -0.0062540613073 1.3543895948 -0.02167697771
          -0.0062442562897 1.3541127873 -0.021569179698 -0.0062613167828 1.3537509667 -0.021595077007
          -0.0062155099814 1.3532376989 -0.021607994024 -0.0060627085478 1.3528467366 -0.021581292876
          -0.0061154419836 1.3524177599 -0.02165631951 -0.0061877150344 1.3518559004 -0.021750468987