<?xml version="1.0"?>
<VTKFile type="UnstructuredGrid" version="0.1" byte_order="LittleEndian" compressor="vtkZLibDataCompressor">
  <UnstructuredGrid>
    <FieldData>
      <DataArray type="Float64" Name="TIME" NumberOfTuples="1" format="ascii" RangeMin="0.23795687092" RangeMax="0.23795687092">
        0.23795687092
      </DataArray>
    </FieldData>
    <Piece NumberOfPoints="1000" NumberOfCells="0">
      <PointData>
        <DataArray type="Float64" Name="Damage" format="ascii" RangeMin="0" RangeMax="0.49719101124">
          0 0 0 0 0 0
          0 0 0 0 0 0.027932960894
          0 0 0 0 0 0
          0.027932960894 0 0 0.055084745763 0.071428571429 0.040345821326
          0.014164305949 0.012987012987 0.040345821326 0.071428571429 0.055084745763 0
          0 0.067669172932 0.11239193084 0.1074168798 0.037688442211 0.034562211982
          0.1074168798 0.11239193084 0.067669172932 0 0 0.074349442379
          0.16147308782 0.16834170854 0.12376237624 0.11286681716 0.16834170854 0.16147308782
          0.074349442379 0 0 0.084459459459 0.2 0.25806451613
          0.33860045147 0.39211618257 0.25806451613 0.2 0.084459459459 0
          0 0.093984962406 0.25360230548 0.36061381074 0.41959798995 0.46774193548
          0.36061381074 0.25360230548 0.093984962406 0 0 0.10593220339
          0.31493506494 0.40057636888 0.4447592068 0.49090909091 0.40057636888 0.31493506494
          0.10593220339 0 0 0.16759776536 0.3686440678 0.43984962406
          0.44609665428 0.49662162162 0.43984962406 0.3686440678 0.16759776536 0
          0 0.1677852349 0.36734693878 0.43891402715 0.44642857143 0.49593495935
          0.43891402715 0.36734693878 0.1677852349 0 0 0
          0 0 0 0 0 0
          0 0 0 0.027906976744 0 0
          0 0 0 0 0.027906976744 0
          0 0.056338028169 0.072776280323 0.040669856459 0.014117647059 0.012931034483
          0.040669856459 0.072776280323 0.056338028169 0 0 0.06875
          0.11483253589 0.10828025478 0.0375782881 0.034416826004 0.10828025478 0.11483253589
          0.06875 0 0 0.074303405573 0.16235294118 0.16910229645
          0.12371134021 0.11257035647 0.16910229645 0.16235294118 0.074303405573 0
          0 0.084269662921 0.20043103448 0.25812619503 0.33771106942 0.39242685026
          0.25812619503 0.20043103448 0.084269662921 0 0 0.09375
          0.25358851675 0.36093418259 0.41962421712 0.46845124283 0.36093418259 0.25358851675
          0.09375 0 0 0.10563380282 0.3153638814 0.4019138756
          0.44470588235 0.49137931034 0.4019138756 0.3153638814 0.10563380282 0
          0 0.16744186047 0.36971830986 0.440625 0.44582043344 0.49719101124
          0.440625 0.36971830986 0.16744186047 0 0 0.16759776536
          0.3686440678 0.43984962406 0.44609665428 0.49662162162 0.43984962406 0.3686440678
          0.16759776536 0 0 0 0 0
          0 0 0 0 0 0
          0 0.024647887324 0 0 0 0
          0 0 0.024647887324 0 0 0.051212938005
          0.06875 0.038817005545 0.012635379061 0.011666666667 0.038817005545 0.06875
          0.051212938005 0 0 0.064593301435 0.10905730129 0.10491803279
          0.036858974359 0.034023668639 0.10491803279 0.10905730129 0.064593301435 0
          0 0.070588235294 0.15523465704 0.16506410256 0.12283464567 0.11271676301
          0.16506410256 0.15523465704 0.070588235294 0 0 0.081896551724
          0.19333333333 0.25443786982 0.33959537572 0.38985313752 0.25443786982 0.19333333333
          0.081896551724 0 0 0.093301435407 0.24768946396 0.35573770492
          0.41987179487 0.46449704142 0.35573770492 0.24768946396 0.093301435407 0
          0 0.10781671159 0.30833333333 0.39556377079 0.4440433213 0.48666666667
          0.39556377079 0.30833333333 0.10781671159 0 0 0.16197183099
          0.35579514825 0.43062200957 0.44470588235 0.49137931034 0.43062200957 0.35579514825
          0.16197183099 0 0 0.16101694915 0.3538961039 0.42939481268
          0.4447592068 0.49090909091 0.42939481268 0.3538961039 0.16101694915 0
          0 0 0 0 0 0
          0 0 0 0 0 0.025
          0 0 0 0 0 0
          0.025 0 0 0.05023923445 0.068391866913 0.039344262295
          0.012820512821 0.011834319527 0.039344262295 0.068391866913 0.05023923445 0
          0 0.063694267516 0.10819672131 0.10465116279 0.036984352774 0.034120734908
          0.10465116279 0.10819672131 0.063694267516 0 0 0.070981210856
          0.15544871795 0.16500711238 0.12290502793 0.11282051282 0.16500711238 0.15544871795
          0.070981210856 0 0 0.082217973231 0.19378698225 0.25459317585
          0.33974358974 0.38981042654 0.25459317585 0.19378698225 0.082217973231 0
          0 0.093418259023 0.24918032787 0.35610465116 0.41963015647 0.46456692913
          0.35610465116 0.24918032787 0.093418259023 0 0 0.10765550239
          0.30868761553 0.39508196721 0.44391025641 0.48668639053 0.39508196721 0.30868761553
          0.10765550239 0 0 0.1625 0.35645933014 0.43099787686
          0.44467640919 0.4913957935 0.43099787686 0.35645933014 0.1625 0
          0 0.16165413534 0.35446685879 0.42966751918 0.44472361809 0.49078341014
          0.42966751918 0.35446685879 0.16165413534 0 0 0
          0 0 0 0 0 0
          0 0 0 0.02786377709 0 0
          0 0 0 0 0.02786377709 0
          0 0.054117647059 0.070397111913 0.040064102564 0.014173228346 0.013005780347
          0.040064102564 0.070397111913 0.054117647059 0 0 0.066805845511
          0.11057692308 0.106685633 0.037709497207 0.034615384615 0.106685633 0.11057692308
          0.066805845511 0 0 0.074226804124 0.16062992126 0.16759776536
          0.12362637363 0.11292346299 0.16759776536 0.16062992126 0.074226804124 0
          0 0.084427767355 0.19942196532 0.25769230769 0.33877038896 0.39145496536
          0.25769230769 0.19942196532 0.084427767355 0 0 0.093945720251
          0.25320512821 0.35988620199 0.41899441341 0.46666666667 0.35988620199 0.25320512821
          0.093945720251 0 0 0.10588235294 0.31407942238 0.39903846154
          0.44409448819 0.48988439306 0.39903846154 0.31407942238 0.10588235294 0
          0 0.16718266254 0.36705882353 0.43841336117 0.44536082474 0.49530956848
          0.43841336117 0.36705882353 0.16718266254 0 0 0.16728624535
          0.36543909348 0.43718592965 0.44554455446 0.49435665914 0.43718592965 0.36543909348
          0.16728624535 0 0 0 0 0
          0 0 0 0 0 0
          0 0.025280898876 0 0 0 0
          0 0 0.025280898876 0 0 0.049568965517
          0.066666666667 0.038461538462 0.013005780347 0.012016021362 0.038461538462 0.066666666667
          0.049568965517 0 0 0.06309751434 0.1050295858 0.10367454068
          0.037179487179 0.034360189573 0.10367454068 0.1050295858 0.06309751434 0
          0 0.071294559099 0.15462427746 0.1641025641 0.12296110414 0.11316397229
          0.1641025641 0.15462427746 0.071294559099 0 0 0.082616179002
          0.19359145527 0.25473933649 0.34064665127 0.38930481283 0.25473933649 0.19359145527
          0.082616179002 0 0 0.093690248566 0.24852071006 0.35564304462
          0.41923076923 0.46327014218 0.35564304462 0.24852071006 0.093690248566 0
          0 0.10775862069 0.30833333333 0.39349112426 0.4436416185 0.48598130841
          0.39349112426 0.30833333333 0.10775862069 0 0 0.16292134831
          0.35560344828 0.43021032505 0.44465290807 0.49053356282 0.43021032505 0.35560344828
          0.16292134831 0 0 0.16216216216 0.35324675325 0.42857142857
          0.44469525959 0.48962655602 0.42857142857 0.35324675325 0.16216216216 0
          0 0 0 0 0 0
          0 0 0 0 0 0.025
          0 0 0 0 0 0
          0.025 0 0 0.05023923445 0.068391866913 0.039344262295
          0.012820512821 0.011834319527 0.039344262295 0.068391866913 0.05023923445 0
          0 0.063694267516 0.10819672131 0.10465116279 0.036984352774 0.034120734908
          0.10465116279 0.10819672131 0.063694267516 0 0 0.070981210856
          0.15544871795 0.16500711238 0.12290502793 0.11282051282 0.16500711238 0.15544871795
          0.070981210856 0 0 0.082217973231 0.19378698225 0.25459317585
          0.33974358974 0.38981042654 0.25459317585 0.19378698225 0.082217973231 0
          0 0.093418259023 0.24918032787 0.35610465116 0.41963015647 0.46456692913
          0.35610465116 0.24918032787 0.093418259023 0 0 0.10765550239
          0.30868761553 0.39508196721 0.44391025641 0.48668639053 0.39508196721 0.30868761553
          0.10765550239 0 0 0.1625 0.35645933014 0.43099787686
          0.44467640919 0.4913957935 0.43099787686 0.35645933014 0.1625 0
          0 0.16165413534 0.35446685879 0.42966751918 0.44472361809 0.49078341014
          0.42966751918 0.35446685879 0.16165413534 0 0 0
          0 0 0 0 0 0
          0 0 0 0.024647887324 0 0
          0 0 0 0 0.024647887324 0
          0 0.051212938005 0.06875 0.038817005545 0.012635379061 0.011666666667
          0.038817005545 0.06875 0.051212938005 0 0 0.064593301435
          0.10905730129 0.10491803279 0.036858974359 0.034023668639 0.10491803279 0.10905730129
          0.064593301435 0 0 0.070588235294 0.15523465704 0.16506410256
          0.12283464567 0.11271676301 0.16506410256 0.15523465704 0.070588235294 0
          0 0.081896551724 0.19333333333 0.25443786982 0.33959537572 0.38985313752
          0.25443786982 0.19333333333 0.081896551724 0 0 0.093301435407
          0.24768946396 0.35573770492 0.41987179487 0.46449704142 0.35573770492 0.24768946396
          0.093301435407 0 0 0.10781671159 0.30833333333 0.39556377079
          0.4440433213 0.48666666667 0.39556377079 0.30833333333 0.10781671159 0
          0 0.16197183099 0.35579514825 0.43062200957 0.44470588235 0.49137931034
          0.43062200957 0.35579514825 0.16197183099 0 0 0.16101694915
          0.3538961039 0.42939481268 0.4447592068 0.49090909091 0.42939481268 0.3538961039
          0.16101694915 0 0 0 0 0
          0 0 0 0 0 0
          0 0.027906976744 0 0 0 0
          0 0 0.027906976744 0 0 0.056338028169
          0.072776280323 0.040669856459 0.014117647059 0.012931034483 0.040669856459 0.072776280323
          0.056338028169 0 0 0.06875 0.11483253589 0.10828025478
          0.0375782881 0.034416826004 0.10828025478 0.11483253589 0.06875 0
          0 0.074303405573 0.16235294118 0.16910229645 0.12371134021 0.11257035647
          0.16910229645 0.16235294118 0.074303405573 0 0 0.084269662921
          0.20043103448 0.25812619503 0.33771106942 0.39242685026 0.25812619503 0.20043103448
          0.084269662921 0 0 0.09375 0.25358851675 0.36093418259
          0.41962421712 0.46845124283 0.36093418259 0.25358851675 0.09375 0
          0 0.10563380282 0.3153638814 0.4019138756 0.44470588235 0.49137931034
          0.4019138756 0.3153638814 0.10563380282 0 0 0.16744186047
          0.36971830986 0.440625 0.44582043344 0.49719101124 0.440625 0.36971830986
          0.16744186047 0 0 0.16759776536 0.3686440678 0.43984962406
          0.44609665428 0.49662162162 0.43984962406 0.3686440678 0.16759776536 0
          0 0 0 0 0 0
          0 0 0 0 0 0.027932960894
          0 0 0 0 0 0
          0.027932960894 0 0 0.055084745763 0.071428571429 0.040345821326
          0.014164305949 0.012987012987 0.040345821326 0.071428571429 0.055084745763 0
          0 0.067669172932 0.11239193084 0.1074168798 0.037688442211 0.034562211982
          0.1074168798 0.11239193084 0.067669172932 0 0 0.074349442379
          0.16147308782 0.16834170854 0.12376237624 0.11286681716 0.16834170854 0.16147308782
          0.074349442379 0 0 0.084459459459 0.2 0.25806451613
          0.33860045147 0.39211618257 0.25806451613 0.2 0.084459459459 0
          0 0.093984962406 0.25360230548 0.36061381074 0.41959798995 0.46774193548
          0.36061381074 0.25360230548 0.093984962406 0 0 0.10593220339
          0.31493506494 0.40057636888 0.4447592068 0.49090909091 0.40057636888 0.31493506494
          0.10593220339 0 0 0.16759776536 0.3686440678 0.43984962406
          0.44609665428 0.49662162162 0.43984962406 0.3686440678 0.16759776536 0
          0 0.1677852349 0.36734693878 0.43891402715 0.44642857143 0.49593495935
          0.43891402715 0.36734693878 0.1677852349 0
        </DataArray>
        <DataArray type="Float64" Name="Displacement" NumberOfComponents="3" format="ascii" RangeMin="1.6958642345" RangeMax="1.7117353205">
          -0.0018080139708 1.7004436523 -0.0078112117422 -0.003032536724 1.7034350201 -0.008747258241
          -0.003634280313 1.702974944 -0.0090802754403 -0.0037400028228 1.702425785 -0.0086885441129
          -0.0038056690952 1.7024584893 -0.008905593954 -0.003773169689 1.7025612602 -0.0092707146346
          -0.0039752389319 1.7018577168 -0.0087448277024 -0.0040585039554 1.7019513848 -0.0090534211012
          -0.0047499487719 1.7021004077 -0.0087364002661 -0.0060510827893 1.6986015646 -0.007821298028
          -0.0025284208335 1.7029871849 -0.0093650622626 -0.0058299528454 1.7039888702 -0.0089511564327
          -0.0036746356375 1.7024781934 -0.0089570439476 -0.0037064726634 1.7041225178 -0.010307258727
          -0.0037163941002 1.7043392242 -0.010541764014 -0.003580333782 1.7039187795 -0.010296196457
          -0.0036771027111 1.7036390166 -0.010421979044 -0.0036109772331 1.7014807147 -0.0089449613468
          -0.0015340186466 1.7023825998 -0.0088624881488 -0.0048621906598 1.7011904669 -0.0093698091654
          -0.002927231913 1.7028663193 -0.010142071129 -0.0034016482255 1.7033397718 -0.010144439302
          -0.0038736846203 1.7033879815 -0.0096595467141 -0.0032300979905 1.7030963697 -0.0098854383455
          -0.0033340382183 1.7038704051 -0.010296902462 -0.0035894336736 1.7038048323 -0.01052241093
          -0.0036801211722 1.7023983617 -0.0098157932066 -0.0030713799111 1.7023495441 -0.0096466152648
          -0.0035550157809 1.7019652548 -0.010169400918 -0.003967134304 1.7010838017 -0.010174450143
          -0.0034756386477 1.7039611557 -0.010563971686 -0.0027276181946 1.7032671214 -0.010179768865
          -0.0036272643392 1.7038837968 -0.010501118523 -0.0036227135413 1.7033075953 -0.010145233526
          -0.0032246252873 1.7037752804 -0.01041656168 -0.0033972433948 1.7035702809 -0.010454143467
          -0.0028814624067 1.7027134539 -0.010118096172 -0.0028629873182 1.7028317496 -0.010463316816
          -0.0037727174836 1.7018495711 -0.010153441531 -0.0029832252201 1.7021763651 -0.010532291517
          -0.0028504551349 1.7039273628 -0.011126243399 -0.0025990961353 1.7030439598 -0.011164102731
          -0.0029953644209 1.7037638867 -0.010492916742 -0.0030080046796 1.7034184487 -0.010400084467
          -0.0031090248613 1.7030294083 -0.010234151181 -0.0029689270732 1.7034314445 -0.010243014933
          -0.0030447051332 1.7026842485 -0.010373874451 -0.0030790527296 1.7027054231 -0.01046949273
          -0.0034867682353 1.7016389191 -0.011138178288 -0.0031953849753 1.70214649 -0.011079958147
          -0.0024663839803 1.7045955217 -0.011237078362 -0.0021230863458 1.703314589 -0.011776414099
          -0.0030923569213 1.7041013457 -0.010524846106 -0.0032679765303 1.7035847289 -0.010390913132
          -0.00077985220563 1.7041953188 -0.0086773913196 -0.004976124578 1.7041039074 -0.0084903505462
          -0.0024303383648 1.7029845316 -0.010400700512 -0.0025913748194 1.7030336604 -0.010539803227
          -0.0035516173542 1.7018871 -0.011762712577 -0.0031826524695 1.7027822223 -0.011197974676
          -0.0029516224739 1.7038809851 -0.011051836999 -0.0020865514518 1.7036628388 -0.011858695433
          -0.0034825724119 1.7039525387 -0.010823389027 -0.0044798886006 1.7026467481 -0.01216555936
          -0.0052174165545 1.701913236 -0.013294389536 7.5843094209e-05 1.701659227 -0.013397237125
          -0.00077898623351 1.7019691845 -0.012175068817 -0.0017976445595 1.702917052 -0.010775798338
          -0.0031880513958 1.7022052598 -0.011866986334 -0.0022631293683 1.7020865594 -0.010943610929
          -0.0027969766579 1.7039004446 -0.011668688443 -0.0026253917288 1.7043039571 -0.011106140002
          -0.0031153543483 1.7036334984 -0.011218053273 0.00019098205425 1.7038175177 -0.0098869657613
          -0.0013031348272 1.7021443505 -0.010909736644 -0.0035042454936 1.7019343415 -0.010974138382
          -0.0050632963127 1.7032155097 -0.0098751214219 -0.0017608278856 1.702628636 -0.011188119441
          -0.0023716633595 1.7029011679 -0.011130889721 -0.0020160965371 1.7021388895 -0.011545452713
          -0.0044901606828 1.7032823517 -0.011958060717 -0.0013944858922 1.7048538761 -0.012459307272
          -0.0009021046599 1.7031522612 -0.013085785889 -0.0028842996515 1.702573382 -0.012790993324
          -0.003348405875 1.702110573 -0.012511275523 -0.0012208220753 1.7018654295 -0.012499108192
          -0.0015011786411 1.7019980832 -0.012773339667 -0.0035648780219 1.7021848734 -0.01300267101
          -0.0031200898549 1.7034427559 -0.012413087104 6.7701569743e-05 1.701442634 -0.011870947763
          -0.001633645471 1.7084773257 -0.0079600577993 -0.001841450803 1.7075891719 -0.0074539447745
          -0.00075920236039 1.7051154547 -0.010528730099 0.00034745699859 1.706691441 -0.0075707225083
          0.00019835396031 1.6959964673 -0.015996958669 -0.0045093258073 1.6957847759 -0.015784859098
          -0.0044298717003 1.7061794075 -0.0074335231027 -0.0032499067906 1.7040897265 -0.010529131564
          -0.0021677616926 1.7063784573 -0.0072046804529 -0.0023315791696 1.7064086322 -0.0081281751877
          -0.0029863658252 1.7040050209 -0.0085805536687 -0.0021667240954 1.7026905363 -0.009525214005
          -0.0032020075805 1.7028462913 -0.0084237743142 -0.0033738573463 1.7041659159 -0.010394875843
          -0.0038896160435 1.7044291132 -0.010511501801 -0.0038972240175 1.7040119332 -0.010270571433
          -0.004363731593 1.7036706264 -0.010499367431 -0.0045139738118 1.7018513215 -0.0084098487368
          -0.0055919970871 1.7012299481 -0.0094997547327 -0.0047824244808 1.7021869693 -0.0086115964313
          -0.0031817374561 1.7046321185 -0.011084675639 -0.0034814457993 1.7043619953 -0.01024684875
          -0.0037236809742 1.7036715478 -0.009347147212 -0.0034413126918 1.7038890478 -0.009963704764
          -0.0035553262183 1.7036632761 -0.0098341536979 -0.0037240952641 1.7034537886 -0.0098429911014
          -0.0038511536558 1.7032401929 -0.0098971855088 -0.0036108887575 1.702673187 -0.0093654003606
          -0.0038528189304 1.7029431137 -0.010230001214 -0.0040936830802 1.7028063276 -0.011066236198
          -0.0033109197547 1.7039621283 -0.009169860153 -0.003850256464 1.7041430445 -0.0098597797677
          -0.0030879019234 1.7041763175 -0.010524182154 -0.0032753856338 1.7039636766 -0.010321834459
          -0.0033843669634 1.7038900254 -0.010290090855 -0.0035487049358 1.7036710876 -0.010288576228
          -0.0036508980254 1.7033452579 -0.010326639808 -0.0038060488714 1.7031664727 -0.010501182204
          -0.0030539247253 1.7027249484 -0.0098449354161 -0.0035794426945 1.7021432099 -0.0092121256307
          -0.0029512718979 1.7037573293 -0.010653985826 -0.0036460661715 1.7042510855 -0.010250104566
          -0.0030576387648 1.7038532043 -0.01059598187 -0.0031748195613 1.7037605079 -0.010302782008
          -0.0032439830566 1.70368967 -0.01015100724 -0.0032705579495 1.7034784487 -0.010142591468
          -0.0033426686975 1.7031261288 -0.010288033552 -0.0034745991664 1.7028143612 -0.010598081153
          -0.0028190564588 1.702827899 -0.010217284513 -0.0035505094464 1.7018699339 -0.010654689927
          -0.0027766879996 1.7042346278 -0.010874960871 -0.003387237937 1.704038527 -0.010172138237
          -0.0031143789593 1.7038346367 -0.010599618529 -0.0031542417834 1.70376427 -0.010300826456
          -0.0030554941158 1.7036832088 -0.010473379406 -0.0030811752941 1.7034740333 -0.010521955628
          -0.0029789417484 1.7031717678 -0.010317289469 -0.0030200991179 1.7028061484 -0.010606197377
          -0.0026683986931 1.7025940702 -0.010138907052 -0.0032764280302 1.7024108244 -0.0108961062
          -0.0031377944472 1.704051714 -0.011119923738 -0.0038085971538 1.7038741748 -0.010722921474
          -0.0034113143435 1.7036958504 -0.011078927709 -0.0032852313215 1.7036174537 -0.011055731346
          -0.003023064774 1.7035533057 -0.010971679907 -0.0026253834517 1.7033518625 -0.010954773236
          -0.0023517500379 1.7029971288 -0.011103383922 -0.0022834695653 1.70266553 -0.011094403285
          -0.0018555529095 1.702421858 -0.010693493849 -0.0025313852593 1.7022320215 -0.011124999927
          -0.0028003865071 1.7038776469 -0.011885457489 -0.0038840141089 1.7040809347 -0.010591124797
          -0.0033248500689 1.7039232116 -0.010831996476 -0.0028550324366 1.7039157319 -0.010632574569
          -0.0039564051023 1.7037809831 -0.011657427812 -0.0012557046056 1.7036336469 -0.011632068825
          -0.0023800735312 1.7033001443 -0.010612893266 -0.0019274248786 1.7028773415 -0.010800045265
          -0.00142164438 1.7026514016 -0.010581035365 -0.0024715599463 1.7020296506 -0.011909253252
          -0.0029185628361 1.704671596 -0.011140265649 -0.0032537047358 1.7038948406 -0.01162846834
          -0.0031063063528 1.7040365552 -0.011251945566 -0.0033543056498 1.7039495078 -0.011344328946
          -0.0035792445765 1.7037538088 -0.011583051032 -0.0013294691305 1.7035007947 -0.011612017708
          -0.001580065206 1.7033059071 -0.011341373066 -0.0017666987589 1.7029991077 -0.01123281752
          -0.0016254275234 1.702456864 -0.011619195743 -0.0019562668725 1.7028460787 -0.011130587584
          -0.0044068963406 1.70144686 -0.013011073702 -0.0034246634541 1.7045357812 -0.011378891144
          -0.0029744557834 1.7046787631 -0.011804394307 -0.0028971244334 1.7040848525 -0.011685107545
          -0.0029434271976 1.7024044101 -0.01271332861 -0.0014724768779 1.7022073315 -0.012752399086
          -0.0015647169345 1.703446151 -0.011663536592 -0.0014937706966 1.7036380047 -0.011775576883
          -0.0010607809559 1.7030776057 -0.011367254711 -4.8866172001e-05 1.6995301928 -0.013013840519
          0.0004280082377 1.705703158 -0.013396613158 -0.0055815391436 1.7038228615 -0.0088535368296
          -0.00081620248508 1.7050385583 -0.010049786011 -0.00098369410528 1.702352785 -0.011627568841
          -0.00015513858184 1.7001740527 -0.012823319745 -0.0038004873376 1.6999738322 -0.012863668264
          -0.0030182686638 1.7016740698 -0.011662697125 -0.0032581336731 1.7039753745 -0.0099987390864
          0.0013927929239 1.7024863423 -0.0087527720489 -0.0041817855822 1.7036361015 -0.013268598772
          -0.0034546103106 1.7038197735 -0.0092224577386 -0.0028766280493 1.7035989331 -0.0090865891173
          -0.0036605011392 1.7043789699 -0.0093357491399 -0.0036156474742 1.7038767353 -0.0091769381864
          -0.0037375011204 1.7032624731 -0.0085196304489 -0.0039122383503 1.7029071941 -0.0085072681204
          -0.004083643019 1.7032212988 -0.0091325392764 -0.0040348495119 1.7033859171 -0.0093532396574
          -0.0048935848144 1.7021831756 -0.0090615550672 -0.0043435131143 1.7018783977 -0.0092507937814
          -0.0022202360872 1.7032199976 -0.0097979345228 -0.0035025202874 1.7041475983 -0.0096483177696
          -0.003387754849 1.7041338586 -0.0097869321024 -0.0035403035562 1.704272619 -0.0098019247809
          -0.0035773053722 1.7039338365 -0.0097207984465 -0.0037010353654 1.7037438556 -0.0096943559298
          -0.0037720224955 1.7036653987 -0.0098063786051 -0.003932790279 1.7030831478 -0.0097434638802
          -0.0038025337444 1.7027299281 -0.0096429555562 -0.0051135003576 1.7013241327 -0.0098231399301
          -0.0035243966131 1.7045825203 -0.0098494477276 -0.0026041041898 1.7039315109 -0.01041844592
          -0.0032881637763 1.7042445352 -0.010189946236 -0.0034037331933 1.7041540467 -0.010086373183
          -0.0034183515809 1.7038950448 -0.010033662018 -0.0034545144519 1.7037513687 -0.010002401914
          -0.0035009050846 1.703553682 -0.010074296553 -0.0036007206438 1.7032261011 -0.010176175122
          -0.0042744534454 1.7025155187 -0.010386295711 -0.0033796052028 1.7027323969 -0.0098158251826
          -0.0035052867814 1.7044961109 -0.01012484415 -0.0032966408684 1.7042201921 -0.01031311924
          -0.003310074908 1.7041768235 -0.010298728758 -0.0032565152378 1.7041071672 -0.010256397557
          -0.0032434458548 1.7040528304 -0.010149071287 -0.0032170250414 1.7038317268 -0.010149669991
          -0.003255059279 1.7034600742 -0.010248776151 -0.0031786784688 1.7031387066 -0.010300799472
          -0.0032135129006 1.7027949408 -0.010305927513 -0.0030126831549 1.7026631486 -0.010122223947
          -0.0033913516 1.7043407931 -0.010530351749 -0.0032981395489 1.7041533717 -0.010577915594
          -0.0032133097142 1.7041259661 -0.010535444249 -0.0031150969718 1.7040761399 -0.010528363388
          -0.0030874454884 1.704086432 -0.010444884108 -0.0030114781655 1.703832221 -0.010484121228
          -0.0029788357131 1.7034706015 -0.010490248682 -0.0029026448773 1.7031165872 -0.010529101966
          -0.0028134222286 1.7027146114 -0.010561485202 -0.0027267605261 1.702514294 -0.010539033391
          -0.0033210159965 1.7039229967 -0.011167662428 -0.0034884607977 1.7042201719 -0.010758471049
          -0.0033118647188 1.704143426 -0.010866181712 -0.0033518178105 1.7040501938 -0.010892247166
          -0.0033858550003 1.7038760724 -0.010834615 -0.0023015573221 1.7036769267 -0.010788207944
          -0.0023242618465 1.7034515819 -0.010879314831 -0.0023775660745 1.7031245073 -0.010849893611
          -0.0022375532683 1.7027842551 -0.010758461577 -0.0023886260609 1.7020729536 -0.011164479352
          -0.0036543947722 1.7041773006 -0.010763921817 -0.0033427980857 1.7043136392 -0.011051098443
          -0.0030207222223 1.7040853495 -0.011233303961 -0.0034332318065 1.7039616313 -0.011190229902
          -0.0029098169949 1.7037046368 -0.011176253248 -0.0023447968872 1.7035294802 -0.011161505758
          -0.0018067935708 1.7033441817 -0.01119356662 -0.0022869154309 1.7030530088 -0.011217701672
          -0.0019339714526 1.7028691478 -0.011050965884 -0.0016446125038 1.702322936 -0.010753924699
          -0.0032108978158 1.7040482428 -0.012000361249 -0.0025864886656 1.7048489013 -0.011401990986
          -0.0033314269209 1.703867113 -0.011784447869 -0.002986829702 1.7040131443 -0.01142327314
          -0.0028364455955 1.7033676835 -0.011893185016 -0.0020342195651 1.7031809784 -0.011858836605
          -0.0018796981862 1.7033981808 -0.011411643709 -0.0015118248392 1.702834128 -0.011768822249
          -0.0022623533663 1.7034201862 -0.011366121283 -0.0016974729946 1.7022172663 -0.012011469977
          -0.0019775273309 1.706260481 -0.011290654693 -0.0026419005183 1.704252035 -0.012214664147
          -0.0013668532022 1.7043103619 -0.012255442453 -0.001610619371 1.7038125201 -0.011775580104
          -0.0023570848602 1.704139627 -0.010593715856 -0.0021407748598 1.7038788007 -0.010626229311
          -0.0028950194569 1.7031595321 -0.011775915449 -0.0031035237947 1.7032710187 -0.012253603196
          -0.0018341113017 1.7028485276 -0.01217736983 -0.0025358683918 1.704422549 -0.011275778047
          0.00042017289819 1.708829598 -0.012453964421 -0.0067668305553 1.7037899487 -0.011222100826
          -0.0018489250247 1.7055475766 -0.011642285623 -0.0031919568811 1.7048544725 -0.012568489752
          7.2148656992e-05 1.7009586871 -0.013765007844 -0.0041531356541 1.700731887 -0.013776661078
          -0.00090755351496 1.704233757 -0.012514571877 -0.0022246681811 1.7045978607 -0.011567643322
          0.0027376483734 1.7023023188 -0.011231219834 -0.0046099278654 1.7070839044 -0.012386572977
          -0.0032985286328 1.7041938734 -0.0096350149491 -0.0033219818379 1.7042517103 -0.0091365770105
          -0.0038796619462 1.7048329189 -0.0095314240719 -0.0037566970789 1.704656753 -0.0093742079592
          -0.0038239338077 1.7043406681 -0.0092656481614 -0.003834701895 1.704119179 -0.00922281899
          -0.0038998681644 1.7040626944 -0.0093763467613 -0.0038168331445 1.7038138059 -0.0095159666157
          -0.0044199197021 1.702886102 -0.0091065690407 -0.0043796796036 1.7023613397 -0.0096294925607
          -0.0034898488361 1.7048115601 -0.0094697524208 -0.003770396752 1.7048204863 -0.0096208908529
          -0.0035194272296 1.7045499046 -0.0097078295438 -0.0036179096307 1.7046230297 -0.0097376010633
          -0.0035924805244 1.704291601 -0.0096699517705 -0.0037006173831 1.7040888021 -0.009639195115
          -0.0036798452715 1.704056295 -0.0097237884714 -0.0037942474158 1.7035411257 -0.0096901383652
          -0.0034984970525 1.7034210874 -0.0095898277665 -0.0037662926912 1.7030236873 -0.0095063493713
          -0.0028452286086 1.7038971585 -0.01006197351 -0.0034475062784 1.7047129952 -0.010128379432
          -0.0034471633132 1.7044528304 -0.009995358614 -0.0034532396037 1.7044446664 -0.0099850433325
          -0.003404675349 1.7042357355 -0.010017862692 -0.0034695778164 1.7040367425 -0.010008127854
          -0.0034633416923 1.7038296146 -0.0099669959258 -0.0034519760642 1.7034486126 -0.0099825115075
          -0.0034660882515 1.7032711593 -0.010105299659 -0.0040831626871 1.7020628857 -0.01002740529
          -0.003398737631 1.7046755794 -0.010354697139 -0.0033153264312 1.704534185 -0.010330453667
          -0.00332126859 1.7044563008 -0.010298536943 -0.0032991211371 1.7043929116 -0.010268259928
          -0.0031975374756 1.7043659042 -0.010277429484 -0.0032289595125 1.7041437145 -0.010246534464
          -0.0032078640498 1.7037827939 -0.010215112872 -0.0031912949357 1.7034326489 -0.010272735305
          -0.0031777661702 1.7031061818 -0.010312371634 -0.0030930093781 1.702863574 -0.010331527532
          -0.0032109288321 1.7047274571 -0.010695634633 -0.0032916377168 1.704584324 -0.010590987226
          -0.003346494885 1.7043978739 -0.010530513627 -0.0031840654116 1.704359391 -0.010468196235
          -0.0030714973144 1.7043061525 -0.010505690867 -0.0030240302632 1.704144041 -0.010435798776
          -0.0029021051971 1.7037595243 -0.010415779472 -0.0027532517735 1.7033583619 -0.010502880833