<?xml version="1.0"?>
<VTKFile type="UnstructuredGrid" version="0.1" byte_order="LittleEndian" compressor="vtkZLibDataCompressor">
  <UnstructuredGrid>
    <FieldData>
      <DataArray type="Float64" Name="TIME" NumberOfTuples="1" format="ascii" RangeMin="0.50592966689" RangeMax="0.50592966689">
        0.50592966689
      </DataArray>
    </FieldData>
    <Piece NumberOfPoints="1000" NumberOfCells="0">
      <PointData>
        <DataArray type="Float64" Name="Damage" format="ascii" RangeMin="0" RangeMax="0.49719101124">
          0 0 0 0 0 0
          0 0 0 0 0 0.027932960894
          0 0 0 0 0 0
          0.027932960894 0 0 0.055084745763 0.071428571429 0.040345821326
          0.014164305949 0.012987012987 0.040345821326 0.071428571429 0.055084745763 0
          0 0.067669172932 0.11239193084 0.1074168798 0.037688442211 0.034562211982
          0.1074168798 0.11239193084 0.067669172932 0 0 0.074349442379
          0.16147308782 0.16834170854 0.12376237624 0.11286681716 0.16834170854 0.16147308782
          0.074349442379 0 0 0.084459459459 0.2 0.25806451613
          0.33860045147 0.39211618257 0.25806451613 0.2 0.084459459459 0
          0 0.093984962406 0.25360230548 0.36061381074 0.41959798995 0.46774193548
          0.36061381074 0.25360230548 0.093984962406 0 0 0.10593220339
          0.31493506494 0.40057636888 0.4447592068 0.49090909091 0.40057636888 0.31493506494
          0.10593220339 0 0 0.16759776536 0.3686440678 0.43984962406
          0.44609665428 0.49662162162 0.43984962406 0.3686440678 0.16759776536 0
          0 0.1677852349 0.36734693878 0.43891402715 0.44642857143 0.49593495935
          0.43891402715 0.36734693878 0.1677852349 0 0 0
          0 0 0 0 0 0
          0 0 0 0.027906976744 0 0
          0 0 0 0 0.027906976744 0
          0 0.056338028169 0.072776280323 0.040669856459 0.014117647059 0.012931034483
          0.040669856459 0.072776280323 0.056338028169 0 0 0.06875
          0.11483253589 0.10828025478 0.0375782881 0.034416826004 0.10828025478 0.11483253589
          0.06875 0 0 0.074303405573 0.16235294118 0.16910229645
          0.12371134021 0.11257035647 0.16910229645 0.16235294118 0.074303405573 0
          0 0.084269662921 0.20043103448 0.25812619503 0.33771106942 0.39242685026
          0.25812619503 0.20043103448 0.084269662921 0 0 0.09375
          0.25358851675 0.36093418259 0.41962421712 0.46845124283 0.36093418259 0.25358851675
          0.09375 0 0 0.10563380282 0.3153638814 0.4019138756
          0.44470588235 0.49137931034 0.4019138756 0.3153638814 0.10563380282 0
          0 0.16744186047 0.36971830986 0.440625 0.44582043344 0.49719101124
          0.440625 0.36971830986 0.16744186047 0 0 0.16759776536
          0.3686440678 0.43984962406 0.44609665428 0.49662162162 0.43984962406 0.3686440678
          0.16759776536 0 0 0 0 0
          0 0 0 0 0 0
          0 0.024647887324 0 0 0 0
          0 0 0.024647887324 0 0 0.051212938005
          0.06875 0.038817005545 0.012635379061 0.011666666667 0.038817005545 0.06875
          0.051212938005 0 0 0.064593301435 0.10905730129 0.10491803279
          0.036858974359 0.034023668639 0.10491803279 0.10905730129 0.064593301435 0
          0 0.070588235294 0.15523465704 0.16506410256 0.12283464567 0.11271676301
          0.16506410256 0.15523465704 0.070588235294 0 0 0.081896551724
          0.19333333333 0.25443786982 0.33959537572 0.38985313752 0.25443786982 0.19333333333
          0.081896551724 0 0 0.093301435407 0.24768946396 0.35573770492
          0.41987179487 0.46449704142 0.35573770492 0.24768946396 0.093301435407 0
          0 0.10781671159 0.30833333333 0.39556377079 0.4440433213 0.48666666667
          0.39556377079 0.30833333333 0.10781671159 0 0 0.16197183099
          0.35579514825 0.43062200957 0.44470588235 0.49137931034 0.43062200957 0.35579514825
          0.16197183099 0 0 0.16101694915 0.3538961039 0.42939481268
          0.4447592068 0.49090909091 0.42939481268 0.3538961039 0.16101694915 0
          0 0 0 0 0 0
          0 0 0 0 0 0.025
          0 0 0 0 0 0
          0.025 0 0 0.05023923445 0.068391866913 0.039344262295
          0.012820512821 0.011834319527 0.039344262295 0.068391866913 0.05023923445 0
          0 0.063694267516 0.10819672131 0.10465116279 0.036984352774 0.034120734908
          0.10465116279 0.10819672131 0.063694267516 0 0 0.070981210856
          0.15544871795 0.16500711238 0.12290502793 0.11282051282 0.16500711238 0.15544871795
          0.070981210856 0 0 0.082217973231 0.19378698225 0.25459317585
          0.33974358974 0.38981042654 0.25459317585 0.19378698225 0.082217973231 0
          0 0.093418259023 0.24918032787 0.35610465116 0.41963015647 0.46456692913
          0.35610465116 0.24918032787 0.093418259023 0 0 0.10765550239
          0.30868761553 0.39508196721 0.44391025641 0.48668639053 0.39508196721 0.30868761553
          0.10765550239 0 0 0.1625 0.35645933014 0.43099787686
          0.44467640919 0.4913957935 0.43099787686 0.35645933014 0.1625 0
          0 0.16165413534 0.35446685879 0.42966751918 0.44472361809 0.49078341014
          0.42966751918 0.35446685879 0.16165413534 0 0 0
          0 0 0 0 0 0
          0 0 0 0.02786377709 0 0
          0 0 0 0 0.02786377709 0
          0 0.054117647059 0.070397111913 0.040064102564 0.014173228346 0.013005780347
          0.040064102564 0.070397111913 0.054117647059 0 0 0.066805845511
          0.11057692308 0.106685633 0.037709497207 0.034615384615 0.106685633 0.11057692308
          0.066805845511 0 0 0.074226804124 0.16062992126 0.16759776536
          0.12362637363 0.11292346299 0.16759776536 0.16062992126 0.074226804124 0
          0 0.084427767355 0.19942196532 0.25769230769 0.33877038896 0.39145496536
          0.25769230769 0.19942196532 0.084427767355 0 0 0.093945720251
          0.25320512821 0.35988620199 0.41899441341 0.46666666667 0.35988620199 0.25320512821
          0.093945720251 0 0 0.10588235294 0.31407942238 0.39903846154
          0.44409448819 0.48988439306 0.39903846154 0.31407942238 0.10588235294 0
          0 0.16718266254 0.36705882353 0.43841336117 0.44536082474 0.49530956848
          0.43841336117 0.36705882353 0.16718266254 0 0 0.16728624535
          0.36543909348 0.43718592965 0.44554455446 0.49435665914 0.43718592965 0.36543909348
          0.16728624535 0 0 0 0 0
          0 0 0 0 0 0
          0 0.025280898876 0 0 0 0
          0 0 0.025280898876 0 0 0.049568965517
          0.066666666667 0.038461538462 0.013005780347 0.012016021362 0.038461538462 0.066666666667
          0.049568965517 0 0 0.06309751434 0.1050295858 0.10367454068
          0.037179487179 0.034360189573 0.10367454068 0.1050295858 0.06309751434 0
          0 0.071294559099 0.15462427746 0.1641025641 0.12296110414 0.11316397229
          0.1641025641 0.15462427746 0.071294559099 0 0 0.082616179002
          0.19359145527 0.25473933649 0.34064665127 0.38930481283 0.25473933649 0.19359145527
          0.082616179002 0 0 0.093690248566 0.24852071006 0.35564304462
          0.41923076923 0.46327014218 0.35564304462 0.24852071006 0.093690248566 0
          0 0.10775862069 0.30833333333 0.39349112426 0.4436416185 0.48598130841
          0.39349112426 0.30833333333 0.10775862069 0 0 0.16292134831
          0.35560344828 0.43021032505 0.44465290807 0.49053356282 0.43021032505 0.35560344828
          0.16292134831 0 0 0.16216216216 0.35324675325 0.42857142857
          0.44469525959 0.48962655602 0.42857142857 0.35324675325 0.16216216216 0
          0 0 0 0 0 0
          0 0 0 0 0 0.025
          0 0 0 0 0 0
          0.025 0 0 0.05023923445 0.068391866913 0.039344262295
          0.012820512821 0.011834319527 0.039344262295 0.068391866913 0.05023923445 0
          0 0.063694267516 0.10819672131 0.10465116279 0.036984352774 0.034120734908
          0.10465116279 0.10819672131 0.063694267516 0 0 0.070981210856
          0.15544871795 0.16500711238 0.12290502793 0.11282051282 0.16500711238 0.15544871795
          0.070981210856 0 0 0.082217973231 0.19378698225 0.25459317585
          0.33974358974 0.38981042654 0.25459317585 0.19378698225 0.082217973231 0
          0 0.093418259023 0.24918032787 0.35610465116 0.41963015647 0.46456692913
          0.35610465116 0.24918032787 0.093418259023 0 0 0.10765550239
          0.30868761553 0.39508196721 0.44391025641 0.48668639053 0.39508196721 0.30868761553
          0.10765550239 0 0 0.1625 0.35645933014 0.43099787686
          0.44467640919 0.4913957935 0.43099787686 0.35645933014 0.1625 0
          0 0.16165413534 0.35446685879 0.42966751918 0.44472361809 0.49078341014
          0.42966751918 0.35446685879 0.16165413534 0 0 0
          0 0 0 0 0 0
          0 0 0 0.024647887324 0 0
          0 0 0 0 0.024647887324 0
          0 0.051212938005 0.06875 0.038817005545 0.012635379061 0.011666666667
          0.038817005545 0.06875 0.051212938005 0 0 0.064593301435
          0.10905730129 0.10491803279 0.036858974359 0.034023668639 0.10491803279 0.10905730129
          0.064593301435 0 0 0.070588235294 0.15523465704 0.16506410256
          0.12283464567 0.11271676301 0.16506410256 0.15523465704 0.070588235294 0
          0 0.081896551724 0.19333333333 0.25443786982 0.33959537572 0.38985313752
          0.25443786982 0.19333333333 0.081896551724 0 0 0.093301435407
          0.24768946396 0.35573770492 0.41987179487 0.46449704142 0.35573770492 0.24768946396
          0.093301435407 0 0 0.10781671159 0.30833333333 0.39556377079
          0.4440433213 0.48666666667 0.39556377079 0.30833333333 0.10781671159 0
          0 0.16197183099 0.35579514825 0.43062200957 0.44470588235 0.49137931034
          0.43062200957 0.35579514825 0.16197183099 0 0 0.16101694915
          0.3538961039 0.42939481268 0.4447592068 0.49090909091 0.42939481268 0.3538961039
          0.16101694915 0 0 0 0 0
          0 0 0 0 0 0
          0 0.027906976744 0 0 0 0
          0 0 0.027906976744 0 0 0.056338028169
          0.072776280323 0.040669856459 0.014117647059 0.012931034483 0.040669856459 0.072776280323
          0.056338028169 0 0 0.06875 0.11483253589 0.10828025478
          0.0375782881 0.034416826004 0.10828025478 0.11483253589 0.06875 0
          0 0.074303405573 0.16235294118 0.16910229645 0.12371134021 0.11257035647
          0.16910229645 0.16235294118 0.074303405573 0 0 0.084269662921
          0.20043103448 0.25812619503 0.33771106942 0.39242685026 0.25812619503 0.20043103448
          0.084269662921 0 0 0.09375 0.25358851675 0.36093418259
          0.41962421712 0.46845124283 0.36093418259 0.25358851675 0.09375 0
          0 0.10563380282 0.3153638814 0.4019138756 0.44470588235 0.49137931034
          0.4019138756 0.3153638814 0.10563380282 0 0 0.16744186047
          0.36971830986 0.440625 0.44582043344 0.49719101124 0.440625 0.36971830986
          0.16744186047 0 0 0.16759776536 0.3686440678 0.43984962406
          0.44609665428 0.49662162162 0.43984962406 0.3686440678 0.16759776536 0
          0 0 0 0 0 0
          0 0 0 0 0 0.027932960894
          0 0 0 0 0 0
          0.027932960894 0 0 0.055084745763 0.071428571429 0.040345821326
          0.014164305949 0.012987012987 0.040345821326 0.071428571429 0.055084745763 0
          0 0.067669172932 0.11239193084 0.1074168798 0.037688442211 0.034562211982
          0.1074168798 0.11239193084 0.067669172932 0 0 0.074349442379
          0.16147308782 0.16834170854 0.12376237624 0.11286681716 0.16834170854 0.16147308782
          0.074349442379 0 0 0.084459459459 0.2 0.25806451613
          0.33860045147 0.39211618257 0.25806451613 0.2 0.084459459459 0
          0 0.093984962406 0.25360230548 0.36061381074 0.41959798995 0.46774193548
          0.36061381074 0.25360230548 0.093984962406 0 0 0.10593220339
          0.31493506494 0.40057636888 0.4447592068 0.49090909091 0.40057636888 0.31493506494
          0.10593220339 0 0 0.16759776536 0.3686440678 0.43984962406
          0.44609665428 0.49662162162 0.43984962406 0.3686440678 0.16759776536 0
          0 0.1677852349 0.36734693878 0.43891402715 0.44642857143 0.49593495935
          0.43891402715 0.36734693878 0.1677852349 0
        </DataArray>
        <DataArray type="Float64" Name="Displacement" NumberOfComponents="3" format="ascii" RangeMin="0.77663596326" RangeMax="0.80611598796">
          -0.028432631554 -0.78699962105 -0.081043171451 -0.029169955845 -0.78606485969 -0.076676428956
          -0.028225819016 -0.78926517672 -0.075326892795 -0.029153167369 -0.79060930627 -0.074939559051
          -0.028469775012 -0.79219503062 -0.074437871917 -0.028229632936 -0.792824598 -0.074983104348
          -0.027270547775 -0.79428333735 -0.074693211508 -0.028264868512 -0.79548660189 -0.074901223566
          -0.027385719205 -0.79393359949 -0.076270507871 -0.028214641098 -0.79806965261 -0.080673403694
          -0.031806720809 -0.78509891948 -0.074139030271 -0.028006438739 -0.78581651638 -0.077618211608
          -0.02774399358 -0.785926003 -0.078862771911 -0.027554861132 -0.7896656963 -0.07719678068
          -0.027275734801 -0.79126723745 -0.07747515466 -0.026980342505 -0.79193161562 -0.077538735637
          -0.026308464345 -0.79280162758 -0.077194450471 -0.026127011389 -0.79238730678 -0.078672883465
          -0.02604457755 -0.79441928251 -0.077267446633 -0.022399000831 -0.79583888351 -0.073350003274
          -0.025949585559 -0.78581972333 -0.080430960001 -0.02658809795 -0.78686468011 -0.080344958933
          -0.026095634507 -0.78779816547 -0.07967989769 -0.025842746578 -0.7902354722 -0.079074179347
          -0.025732989049 -0.79005621949 -0.079831914919 -0.026215573938 -0.79138693306 -0.079901655215
          -0.026310825814 -0.79388923027 -0.078994034365 -0.025344040808 -0.79362587685 -0.079459921808
          -0.025286624829 -0.79511452025 -0.079863845869 -0.025892082293 -0.79649121095 -0.07994689922
          -0.023618855092 -0.78564679588 -0.082700339443 -0.023943940719 -0.78685887907 -0.081067039479
          -0.02429125816 -0.78778097632 -0.081521339515 -0.024681725419 -0.78953042337 -0.080673206239
          -0.024693655729 -0.79068871697 -0.080966858214 -0.024582357913 -0.79188142533 -0.080617239021
          -0.024316690973 -0.79336666622 -0.080472569058 -0.024944333701 -0.7936950647 -0.081259086187
          -0.025584301383 -0.79500770932 -0.080643118963 -0.025891239375 -0.79621758902 -0.0821260196
          -0.023867075525 -0.78552125369 -0.08201007435 -0.024585401171 -0.78745967577 -0.081886322956
          -0.022924112283 -0.78821425439 -0.082336667257 -0.022060047355 -0.78881836953 -0.082493390954
          -0.023892189496 -0.79108187635 -0.082168096093 -0.024040666555 -0.7904796569 -0.081655692831
          -0.024847561239 -0.79245319407 -0.082493984802 -0.023938429699 -0.79393804204 -0.082232474312
          -0.022707749349 -0.79576166981 -0.081452958496 -0.023130302075 -0.79629105676 -0.081428934751
          -0.020988048481 -0.78366887088 -0.084331150688 -0.021518676237 -0.78685008121 -0.084268097199
          -0.022271807612 -0.78803283356 -0.083548225083 -0.022354605007 -0.78918971632 -0.083159856065
          -0.023667260234 -0.79098380391 -0.084615799684 -0.020520838463 -0.79209311161 -0.084453321191
          -0.022330930911 -0.79300383726 -0.083368819413 -0.022219174724 -0.79381489313 -0.083192186103
          -0.023268178224 -0.79538218083 -0.084108096768 -0.023748767114 -0.79445911787 -0.083619030144
          -0.018075775618 -0.78562308975 -0.088388144888 -0.021558266869 -0.78696462248 -0.085389660418
          -0.020226923591 -0.78782224878 -0.084904083867 -0.021588578077 -0.79003819088 -0.085056680953
          -0.024588990542 -0.78964210029 -0.087388051864 -0.017198436857 -0.79097568605 -0.08747140362
          -0.020531009795 -0.7938650475 -0.084747817681 -0.021862040009 -0.79363289743 -0.084665616272
          -0.020667269916 -0.79548984108 -0.085100468171 -0.02403504528 -0.79631923234 -0.087610823614
          -0.017958299108 -0.78555653935 -0.087313394117 -0.019194777012 -0.78674939543 -0.087084618588
          -0.020487478359 -0.78884215685 -0.086484232675 -0.020245032408 -0.78946374501 -0.086764947525
          -0.019684275616 -0.78954656143 -0.085700383319 -0.019906075076 -0.79070739927 -0.085520824015
          -0.019178128687 -0.79302788736 -0.08665714329 -0.019300309463 -0.79481003259 -0.086136935131
          -0.020881356429 -0.79505902331 -0.086676992764 -0.021697032845 -0.7962277773 -0.086602575227
          -0.019680313508 -0.78444387775 -0.087968873832 -0.017399191641 -0.78825645133 -0.089360784678
          -0.016285024051 -0.78822217649 -0.088011262319 -0.017482468237 -0.7905537519 -0.088686750995
          -0.020235740032 -0.78902392946 -0.088371701419 -0.017280277723 -0.7907631128 -0.087756711542
          -0.020136063994 -0.79409916244 -0.088750262942 -0.021212597823 -0.79440899094 -0.088049639987
          -0.019948313288 -0.79644716187 -0.089176248888 -0.017832774774 -0.7950384052 -0.087795715597
          -0.018105869678 -0.78777357295 -0.089630683978 -0.020737137094 -0.79216830804 -0.092437742403
          -0.01640701111 -0.78772616568 -0.090736122074 -0.017514386004 -0.7841698252 -0.084819502577
          -0.018079282136 -0.78648266058 -0.084079636968 -0.016627965117 -0.78745933836 -0.083872191292
          -0.017394640552 -0.78756719787 -0.084341875535 -0.018527535752 -0.79371542425 -0.090468351402
          -0.014276472759 -0.80071167565 -0.092086811448 -0.016409798533 -0.79899551008 -0.089163747933
          -0.026985655856 -0.78511845301 -0.075798716351 -0.028792276007 -0.78635379212 -0.075640336348
          -0.028222165934 -0.78508137157 -0.077822405504 -0.028738103092 -0.78822879426 -0.075522632757
          -0.028390546484 -0.79000352355 -0.075923134562 -0.028162815053 -0.79080460525 -0.075874284167
          -0.027619671302 -0.7915377112 -0.075866793368 -0.028024499961 -0.79188764074 -0.077335694542
          -0.027891437597 -0.79475292211 -0.075216514395 -0.029543313202 -0.79535642028 -0.075091303422
          -0.028553543065 -0.7835675564 -0.077189563914 -0.027112483716 -0.78476962757 -0.077630007978
          -0.027780921184 -0.78614120089 -0.077894410208 -0.0272557973 -0.78844549071 -0.077609210752
          -0.026960660544 -0.78949204925 -0.077636381551 -0.027216500033 -0.79097178783 -0.077281971707
          -0.026987073725 -0.79200334989 -0.07788625608 -0.026429839131 -0.79195104247 -0.077543233498
          -0.026971256756 -0.7931425639 -0.077474807585 -0.025605388527 -0.79431769688 -0.076678183121
          -0.025415336926 -0.7830527494 -0.080766208523 -0.025981315213 -0.78603677322 -0.07878096565
          -0.025943272652 -0.78655246953 -0.079648895619 -0.025910283807 -0.78780499021 -0.079511607856
          -0.025844011847 -0.78917320958 -0.079402077813 -0.025935681708 -0.7904512156 -0.079335201789
          -0.025882076493 -0.7914154137 -0.079375171267 -0.025806722317 -0.79258327645 -0.079261270678
          -0.025909193862 -0.79447513632 -0.078440629777 -0.026304240723 -0.79382986515 -0.080433323857
          -0.024268432206 -0.7839094169 -0.081121078502 -0.024794933861 -0.78516072111 -0.080955452133
          -0.024480845521 -0.78639889082 -0.081055539965 -0.024527451536 -0.78788896353 -0.080985288322
          -0.024663032248 -0.7889970744 -0.081070621105 -0.024765154921 -0.79036668248 -0.08081125174
          -0.024804489396 -0.79162492618 -0.080696206644 -0.024956402807 -0.79231587227 -0.080959234661
          -0.024638277921 -0.79344911594 -0.080668481404 -0.025050960607 -0.79460111843 -0.08088025655
          -0.023768007015 -0.78409996672 -0.081476176345 -0.023141219822 -0.7855189441 -0.082136487445
          -0.023349305286 -0.78668782464 -0.082338337004 -0.023525768115 -0.78798582084 -0.082212824367
          -0.023514992501 -0.78907653069 -0.082194328234 -0.023437844077 -0.79046982488 -0.082480503495
          -0.023760294564 -0.79149978951 -0.082387173412 -0.023463047995 -0.79264713933 -0.081857216809
          -0.023995923113 -0.79387624644 -0.081845177816 -0.023174910456 -0.79518225132 -0.081203246135
          -0.021246845392 -0.78440370043 -0.084768962912 -0.022123133355 -0.78557520496 -0.083957155463
          -0.02208256523 -0.78679700414 -0.084030936068 -0.022430979938 -0.78786302333 -0.083161638256
          -0.02209160006 -0.78904988114 -0.083653268823 -0.022467133429 -0.79023120537 -0.083599065541
          -0.022066268161 -0.79150980482 -0.082985801017 -0.022708976062 -0.7927817374 -0.083855355032
          -0.022423149318 -0.79385775285 -0.08360881248 -0.023658333402 -0.79460862701 -0.084260701979
          -0.020974288554 -0.78506447865 -0.085592213154 -0.020977927579 -0.78572953331 -0.085180045909
          -0.020626977852 -0.78666903652 -0.085245089417 -0.02022156106 -0.78778724807 -0.084516941484
          -0.02099450839 -0.78896453168 -0.084915063893 -0.021225355728 -0.79009995207 -0.084941643665
          -0.022036013319 -0.79134223601 -0.084143075846 -0.021613590069 -0.79258484825 -0.084898903534
          -0.021334143534 -0.79400553405 -0.084740775859 -0.021358460726 -0.79587001432 -0.085251906748
          -0.019731781031 -0.78497335446 -0.087312040897 -0.019409919903 -0.7860407724 -0.087110683575
          -0.01934142382 -0.78654172547 -0.086315690584 -0.019003952784 -0.78796205659 -0.086194752558
          -0.018257734402 -0.78951878612 -0.085765080396 -0.021500865017 -0.79069645908 -0.08554909034
          -0.020814671905 -0.79175000877 -0.08605276843 -0.02066737749 -0.79259922801 -0.086073503385
          -0.02036567939 -0.79445899736 -0.086643830546 -0.020243771814 -0.79575657621 -0.086981375273
          -0.015792750072 -0.78295937309 -0.090483472143 -0.019047982255 -0.78626364304 -0.088749815289
          -0.018194011399 -0.78709814398 -0.088581715675 -0.017525903209 -0.78812210646 -0.087566622161
          -0.017861999518 -0.78929386077 -0.086648411021 -0.019623633031 -0.79047033813 -0.086453814073
          -0.019997698342 -0.79169095736 -0.087367533668 -0.019308958543 -0.79302084585 -0.088267176801
          -0.018410560937 -0.79464186755 -0.088278228232 -0.021875564092 -0.79370193425 -0.090241887244
          -0.014935917021 -0.785765285 -0.089361286627 -0.018558437077 -0.78736081604 -0.088309837977
          -0.016704973111 -0.78710204329 -0.088718125672 -0.016293567968 -0.79047949776 -0.091507128638
          -0.016182235382 -0.79071594373 -0.08939865669 -0.018528532589 -0.79179692061 -0.088935412278
          -0.018728718705 -0.7936927975 -0.091583182137 -0.018209758964 -0.79290124758 -0.088809741986
          -0.016220484762 -0.79586811091 -0.088689230735 -0.020112029263 -0.79638420876 -0.088880263371
          -0.031390764026 -0.77972344867 -0.075940680416 -0.028782004663 -0.78305562768 -0.077181473875
          -0.028655284668 -0.78507200229 -0.076379608243 -0.028535825757 -0.78667974483 -0.076217109255
          -0.028250724489 -0.78726854115 -0.076963658072 -0.028335780768 -0.78911018522 -0.075856740098
          -0.028084704529 -0.79031240105 -0.076220994226 -0.027936291385 -0.79102719702 -0.076142244492
          -0.027519567766 -0.7913138889 -0.076949817055 -0.025009351821 -0.79026969533 -0.075425943679
          -0.028345264543 -0.78176729585 -0.078283368993 -0.026992757086 -0.78384717793 -0.078176733881
          -0.027438410282 -0.78457607462 -0.078224503977 -0.027156131647 -0.78646327619 -0.077946684198
          -0.027118870607 -0.78775502226 -0.077899496492 -0.027108733899 -0.78884146644 -0.077941986596
          -0.027146040725 -0.78998194923 -0.077914717447 -0.026780634171 -0.79048012022 -0.078084238067
          -0.027293446057 -0.79206336075 -0.077956008548 -0.026204382327 -0.79258723198 -0.077829999474
          -0.025784820978 -0.78301499187 -0.079738634549 -0.025212794809 -0.7840744183 -0.079887861064
          -0.025686092801 -0.78518430322 -0.079520817166 -0.025884818762 -0.78646467047 -0.079519550818
          -0.025947614025 -0.78757272122 -0.07948167457 -0.025895236649 -0.78893070365 -0.079552074752
          -0.025975508765 -0.79010635873 -0.079374555779 -0.026230095979 -0.79117375673 -0.079266051737
          -0.026868697336 -0.7924229251 -0.079627836151 -0.026103311184 -0.7936620725 -0.079270897597
          -0.025022976418 -0.78292754305 -0.080682947051 -0.024901791876 -0.78396716289 -0.080799668171
          -0.024644406433 -0.78524385045 -0.080884526538 -0.024614132061 -0.78649777043 -0.080761184629
          -0.024625952361 -0.78750733697 -0.08077247321 -0.024770809374 -0.78898317987 -0.080859346781
          -0.024804513722 -0.79009931892 -0.080674116794 -0.024867169503 -0.79121718274 -0.08069054803
          -0.024603434055 -0.79237180237 -0.080559195287 -0.024416166839 -0.79369326003 -0.080185784287
          -0.022830148125 -0.78282150047 -0.083134842153 -0.023279211165 -0.78394107021 -0.08229513749
          -0.023580303494 -0.78534982142 -0.082172874547 -0.023504534485 -0.78636769092 -0.082221995722
          -0.023397664019 -0.78754956825 -0.082176743499 -0.02351061962 -0.78885705988 -0.082115454753
          -0.023554297423 -0.78999413239 -0.082038484153 -0.023394288587 -0.79131838376 -0.081913764035
          -0.02375905055 -0.79228657936 -0.081945508788 -0.024272920395 -0.79334410719 -0.082829153693
          -0.022739489793 -0.7835027882 -0.083333415349 -0.022089779717 -0.78402366539 -0.083773070148
          -0.022628094367 -0.78531139804 -0.083636963321 -0.021935709452 -0.78624158773 -0.083530941087
          -0.023080671238 -0.78774794476 -0.084010989336 -0.021631524524 -0.78908615043 -0.083983189113
          -0.022538549289 -0.78993783894 -0.083408215552 -0.022154627912 -0.7912640322 -0.083410860748
          -0.02265443365 -0.79235655149 -0.083502360095 -0.021916906786 -0.79446524402 -0.08294650921
          -0.021026131345 -0.78328852364 -0.085333505554 -0.0213672385 -0.78435996039 -0.08528799506
          -0.021036746585 -0.78536847246 -0.085157235459 -0.021291247799 -0.78633638718 -0.084954527419
          -0.02086913567 -0.78749801917 -0.084884678059 -0.02123849877 -0.78885828206 -0.084999569406
          -0.021091958713 -0.7899561915 -0.084726936028 -0.021294652829 -0.79132941554 -0.084902942077
          -0.02069944432 -0.79266250261 -0.084756376997 -0.021291736641 -0.79398010502 -0.085009271334
          -0.019601418417 -0.78346957913 -0.087600923847 -0.019276729148 -0.78396945784 -0.086889319151
          -0.019148502409 -0.7853671634 -0.086866606168 -0.019840171454 -0.78650772958 -0.086410539218
          -0.020281186676 -0.7868841386 -0.086003277829 -0.019641582554 -0.7884056725 -0.086093800942
          -0.020013354234 -0.78997304168 -0.08616343588 -0.020836386853 -0.790892997 -0.086117424115
          -0.020619674085 -0.79229961799 -0.086570722855 -0.020161120756 -0.79432975251 -0.087332119703
          -0.020433080174 -0.78439252719 -0.087403273829 -0.018914175436 -0.78503257152 -0.088623183964
          -0.019289126063 -0.78468007619 -0.087410827797 -0.018591262946 -0.78700821031 -0.087701347643
          -0.019871390391 -0.7857679797 -0.087039874285 -0.017688495565 -0.78687133817 -0.086915672785
          -0.018932921814 -0.79057966673 -0.087568373398 -0.018190333579 -0.79066214633 -0.08736604812
          -0.01843551314 -0.79323236752 -0.088434035776 -0.016847152737 -0.79521002335 -0.087061617244
          -0.01424150356 -0.78022582084 -0.089595937911 -0.016375247194 -0.78347709197 -0.089276112248
          -0.020650992424 -0.78403521991 -0.088214375905 -0.019887765307 -0.78578917238 -0.088945927165
          -0.021012276221 -0.78546623737 -0.088639141495 -0.013926200939 -0.78674394596 -0.088607497063
          -0.015083397969 -0.78940131801 -0.088686431031 -0.01437079633 -0.79015829486 -0.087963661743
          -0.018671501568 -0.7919255531 -0.088866220145 -0.021030539123 -0.79081296588 -0.089158783023
          -0.028777528129 -0.78023542437 -0.076696507875 -0.027649722902 -0.78345850016 -0.076830423033
          -0.027803124854 -0.7845069303 -0.076983819461 -0.028516430842 -0.78461641151 -0.077215093965
          -0.028543120584 -0.78653197581 -0.076558268455 -0.028353929676 -0.78758422242 -0.076316399228
          -0.028444094194 -0.78821871663 -0.077398275585 -0.02885176303 -0.79032223102 -0.076794971553
          -0.029217505958 -0.79191894103 -0.076509543558 -0.027776623695 -0.7909858871 -0.076345235718
          -0.026361975666 -0.78272023878 -0.078321481358 -0.026894891886 -0.78282065117 -0.078129147894
          -0.027014117807 -0.78378167161 -0.078182287693 -0.027166217301 -0.7848252332 -0.078109845573
          -0.027166597221 -0.78623681435 -0.078063931824 -0.027179123962 -0.78734045154 -0.077982506221
          -0.02727429671 -0.78861717097 -0.077917737314 -0.027303482889 -0.78989664372 -0.077859367679
          -0.027426700538 -0.79106578559 -0.07792236341 -0.028180568445 -0.79353072696 -0.077888078809
          -0.025770816734 -0.78124955692 -0.080121680191 -0.025965291702 -0.78260335781 -0.079516600368
          -0.025814825332 -0.78389517556 -0.079617369282 -0.025874386409 -0.78502931032 -0.079596852988
          -0.025937670531 -0.78612234919 -0.079479599418 -0.02604479588 -0.78734841706 -0.079397896005
          -0.026093072959 -0.78860334295 -0.079330421555 -0.026092075722 -0.78989177617 -0.07934617686
          -0.025986552446 -0.79102999879 -0.079191727024 -0.026114434842 -0.79207193058 -0.079528045909
          -0.024479961743 -0.78174737617 -0.080604646964 -0.024820761831 -0.78263390311 -0.080788693758
          -0.024750406622 -0.78387322017 -0.080888375127 -0.024718986887 -0.78502102101 -0.080897533978
          -0.024697250915 -0.78627107035 -0.080746757254 -0.02477965213 -0.78730128288 -0.080806383585
          -0.024875333624 -0.78860283136 -0.08074246461 -0.024749069498 -0.78982343751 -0.080736704013
          -0.02471928646 -0.79103135071 -0.080477427357 -0.024838267978 -0.79243190218 -0.080065033441
          -0.023363451943 -0.78162477487 -0.082043413025 -0.023484129863 -0.78270212722 -0.082279408808
          -0.023530149234 -0.78377747036 -0.082333753953 -0.023530263023 -0.78512009538 -0.082201797119