<?xml version="1.0"?>
<VTKFile type="UnstructuredGrid" version="0.1" byte_order="LittleEndian" compressor="vtkZLibDataCompressor">
  <UnstructuredGrid>
    <FieldData>
      <DataArray type="Float64" Name="TIME" NumberOfTuples="1" format="ascii" RangeMin="0.42537672221" RangeMax="0.42537672221">
        0.42537672221
      </DataArray>
    </FieldData>
    <Piece NumberOfPoints="1000" NumberOfCells="0">
      <PointData>
        <DataArray type="Float64" Name="Damage" format="ascii" RangeMin="0" RangeMax="0.49719101124">
          0 0 0 0 0 0
          0 0 0 0 0 0.027932960894
          0 0 0 0 0 0
          0.027932960894 0 0 0.055084745763 0.071428571429 0.040345821326
          0.014164305949 0.012987012987 0.040345821326 0.071428571429 0.055084745763 0
          0 0.067669172932 0.11239193084 0.1074168798 0.037688442211 0.034562211982
          0.1074168798 0.11239193084 0.067669172932 0 0 0.074349442379
          0.16147308782 0.16834170854 0.12376237624 0.11286681716 0.16834170854 0.16147308782
          0.074349442379 0 0 0.084459459459 0.2 0.25806451613
          0.33860045147 0.39211618257 0.25806451613 0.2 0.084459459459 0
          0 0.093984962406 0.25360230548 0.36061381074 0.41959798995 0.46774193548
          0.36061381074 0.25360230548 0.093984962406 0 0 0.10593220339
          0.31493506494 0.40057636888 0.4447592068 0.49090909091 0.40057636888 0.31493506494
          0.10593220339 0 0 0.16759776536 0.3686440678 0.43984962406
          0.44609665428 0.49662162162 0.43984962406 0.3686440678 0.16759776536 0
          0 0.1677852349 0.36734693878 0.43891402715 0.44642857143 0.49593495935
          0.43891402715 0.36734693878 0.1677852349 0 0 0
          0 0 0 0 0 0
          0 0 0 0.027906976744 0 0
          0 0 0 0 0.027906976744 0
          0 0.056338028169 0.072776280323 0.040669856459 0.014117647059 0.012931034483
          0.040669856459 0.072776280323 0.056338028169 0 0 0.06875
          0.11483253589 0.10828025478 0.0375782881 0.034416826004 0.10828025478 0.11483253589
          0.06875 0 0 0.074303405573 0.16235294118 0.16910229645
          0.12371134021 0.11257035647 0.16910229645 0.16235294118 0.074303405573 0
          0 0.084269662921 0.20043103448 0.25812619503 0.33771106942 0.39242685026
          0.25812619503 0.20043103448 0.084269662921 0 0 0.09375
          0.25358851675 0.36093418259 0.41962421712 0.46845124283 0.36093418259 0.25358851675
          0.09375 0 0 0.10563380282 0.3153638814 0.4019138756
          0.44470588235 0.49137931034 0.4019138756 0.3153638814 0.10563380282 0
          0 0.16744186047 0.36971830986 0.440625 0.44582043344 0.49719101124
          0.440625 0.36971830986 0.16744186047 0 0 0.16759776536
          0.3686440678 0.43984962406 0.44609665428 0.49662162162 0.43984962406 0.3686440678
          0.16759776536 0 0 0 0 0
          0 0 0 0 0 0
          0 0.024647887324 0 0 0 0
          0 0 0.024647887324 0 0 0.051212938005
          0.06875 0.038817005545 0.012635379061 0.011666666667 0.038817005545 0.06875
          0.051212938005 0 0 0.064593301435 0.10905730129 0.10491803279
          0.036858974359 0.034023668639 0.10491803279 0.10905730129 0.064593301435 0
          0 0.070588235294 0.15523465704 0.16506410256 0.12283464567 0.11271676301
          0.16506410256 0.15523465704 0.070588235294 0 0 0.081896551724
          0.19333333333 0.25443786982 0.33959537572 0.38985313752 0.25443786982 0.19333333333
          0.081896551724 0 0 0.093301435407 0.24768946396 0.35573770492
          0.41987179487 0.46449704142 0.35573770492 0.24768946396 0.093301435407 0
          0 0.10781671159 0.30833333333 0.39556377079 0.4440433213 0.48666666667
          0.39556377079 0.30833333333 0.10781671159 0 0 0.16197183099
          0.35579514825 0.43062200957 0.44470588235 0.49137931034 0.43062200957 0.35579514825
          0.16197183099 0 0 0.16101694915 0.3538961039 0.42939481268
          0.4447592068 0.49090909091 0.42939481268 0.3538961039 0.16101694915 0
          0 0 0 0 0 0
          0 0 0 0 0 0.025
          0 0 0 0 0 0
          0.025 0 0 0.05023923445 0.068391866913 0.039344262295
          0.012820512821 0.011834319527 0.039344262295 0.068391866913 0.05023923445 0
          0 0.063694267516 0.10819672131 0.10465116279 0.036984352774 0.034120734908
          0.10465116279 0.10819672131 0.063694267516 0 0 0.070981210856
          0.15544871795 0.16500711238 0.12290502793 0.11282051282 0.16500711238 0.15544871795
          0.070981210856 0 0 0.082217973231 0.19378698225 0.25459317585
          0.33974358974 0.38981042654 0.25459317585 0.19378698225 0.082217973231 0
          0 0.093418259023 0.24918032787 0.35610465116 0.41963015647 0.46456692913
          0.35610465116 0.24918032787 0.093418259023 0 0 0.10765550239
          0.30868761553 0.39508196721 0.44391025641 0.48668639053 0.39508196721 0.30868761553
          0.10765550239 0 0 0.1625 0.35645933014 0.43099787686
          0.44467640919 0.4913957935 0.43099787686 0.35645933014 0.1625 0
          0 0.16165413534 0.35446685879 0.42966751918 0.44472361809 0.49078341014
          0.42966751918 0.35446685879 0.16165413534 0 0 0
          0 0 0 0 0 0
          0 0 0 0.02786377709 0 0
          0 0 0 0 0.02786377709 0
          0 0.054117647059 0.070397111913 0.040064102564 0.014173228346 0.013005780347
          0.040064102564 0.070397111913 0.054117647059 0 0 0.066805845511
          0.11057692308 0.106685633 0.037709497207 0.034615384615 0.106685633 0.11057692308
          0.066805845511 0 0 0.074226804124 0.16062992126 0.16759776536
          0.12362637363 0.11292346299 0.16759776536 0.16062992126 0.074226804124 0
          0 0.084427767355 0.19942196532 0.25769230769 0.33877038896 0.39145496536
          0.25769230769 0.19942196532 0.084427767355 0 0 0.093945720251
          0.25320512821 0.35988620199 0.41899441341 0.46666666667 0.35988620199 0.25320512821
          0.093945720251 0 0 0.10588235294 0.31407942238 0.39903846154
          0.44409448819 0.48988439306 0.39903846154 0.31407942238 0.10588235294 0
          0 0.16718266254 0.36705882353 0.43841336117 0.44536082474 0.49530956848
          0.43841336117 0.36705882353 0.16718266254 0 0 0.16728624535
          0.36543909348 0.43718592965 0.44554455446 0.49435665914 0.43718592965 0.36543909348
          0.16728624535 0 0 0 0 0
          0 0 0 0 0 0
          0 0.025280898876 0 0 0 0
          0 0 0.025280898876 0 0 0.049568965517
          0.066666666667 0.038461538462 0.013005780347 0.012016021362 0.038461538462 0.066666666667
          0.049568965517 0 0 0.06309751434 0.1050295858 0.10367454068
          0.037179487179 0.034360189573 0.10367454068 0.1050295858 0.06309751434 0
          0 0.071294559099 0.15462427746 0.1641025641 0.12296110414 0.11316397229
          0.1641025641 0.15462427746 0.071294559099 0 0 0.082616179002
          0.19359145527 0.25473933649 0.34064665127 0.38930481283 0.25473933649 0.19359145527
          0.082616179002 0 0 0.093690248566 0.24852071006 0.35564304462
          0.41923076923 0.46327014218 0.35564304462 0.24852071006 0.093690248566 0
          0 0.10775862069 0.30833333333 0.39349112426 0.4436416185 0.48598130841
          0.39349112426 0.30833333333 0.10775862069 0 0 0.16292134831
          0.35560344828 0.43021032505 0.44465290807 0.49053356282 0.43021032505 0.35560344828
          0.16292134831 0 0 0.16216216216 0.35324675325 0.42857142857
          0.44469525959 0.48962655602 0.42857142857 0.35324675325 0.16216216216 0
          0 0 0 0 0 0
          0 0 0 0 0 0.025
          0 0 0 0 0 0
          0.025 0 0 0.05023923445 0.068391866913 0.039344262295
          0.012820512821 0.011834319527 0.039344262295 0.068391866913 0.05023923445 0
          0 0.063694267516 0.10819672131 0.10465116279 0.036984352774 0.034120734908
          0.10465116279 0.10819672131 0.063694267516 0 0 0.070981210856
          0.15544871795 0.16500711238 0.12290502793 0.11282051282 0.16500711238 0.15544871795
          0.070981210856 0 0 0.082217973231 0.19378698225 0.25459317585
          0.33974358974 0.38981042654 0.25459317585 0.19378698225 0.082217973231 0
          0 0.093418259023 0.24918032787 0.35610465116 0.41963015647 0.46456692913
          0.35610465116 0.24918032787 0.093418259023 0 0 0.10765550239
          0.30868761553 0.39508196721 0.44391025641 0.48668639053 0.39508196721 0.30868761553
          0.10765550239 0 0 0.1625 0.35645933014 0.43099787686
          0.44467640919 0.4913957935 0.43099787686 0.35645933014 0.1625 0
          0 0.16165413534 0.35446685879 0.42966751918 0.44472361809 0.49078341014
          0.42966751918 0.35446685879 0.16165413534 0 0 0
          0 0 0 0 0 0
          0 0 0 0.024647887324 0 0
          0 0 0 0 0.024647887324 0
          0 0.051212938005 0.06875 0.038817005545 0.012635379061 0.011666666667
          0.038817005545 0.06875 0.051212938005 0 0 0.064593301435
          0.10905730129 0.10491803279 0.036858974359 0.034023668639 0.10491803279 0.10905730129
          0.064593301435 0 0 0.070588235294 0.15523465704 0.16506410256
          0.12283464567 0.11271676301 0.16506410256 0.15523465704 0.070588235294 0
          0 0.081896551724 0.19333333333 0.25443786982 0.33959537572 0.38985313752
          0.25443786982 0.19333333333 0.081896551724 0 0 0.093301435407
          0.24768946396 0.35573770492 0.41987179487 0.46449704142 0.35573770492 0.24768946396
          0.093301435407 0 0 0.10781671159 0.30833333333 0.39556377079
          0.4440433213 0.48666666667 0.39556377079 0.30833333333 0.10781671159 0
          0 0.16197183099 0.35579514825 0.43062200957 0.44470588235 0.49137931034
          0.43062200957 0.35579514825 0.16197183099 0 0 0.16101694915
          0.3538961039 0.42939481268 0.4447592068 0.49090909091 0.42939481268 0.3538961039
          0.16101694915 0 0 0 0 0
          0 0 0 0 0 0
          0 0.027906976744 0 0 0 0
          0 0 0.027906976744 0 0 0.056338028169
          0.072776280323 0.040669856459 0.014117647059 0.012931034483 0.040669856459 0.072776280323
          0.056338028169 0 0 0.06875 0.11483253589 0.10828025478
          0.0375782881 0.034416826004 0.10828025478 0.11483253589 0.06875 0
          0 0.074303405573 0.16235294118 0.16910229645 0.12371134021 0.11257035647
          0.16910229645 0.16235294118 0.074303405573 0 0 0.084269662921
          0.20043103448 0.25812619503 0.33771106942 0.39242685026 0.25812619503 0.20043103448
          0.084269662921 0 0 0.09375 0.25358851675 0.36093418259
          0.41962421712 0.46845124283 0.36093418259 0.25358851675 0.09375 0
          0 0.10563380282 0.3153638814 0.4019138756 0.44470588235 0.49137931034
          0.4019138756 0.3153638814 0.10563380282 0 0 0.16744186047
          0.36971830986 0.440625 0.44582043344 0.49719101124 0.440625 0.36971830986
          0.16744186047 0 0 0.16759776536 0.3686440678 0.43984962406
          0.44609665428 0.49662162162 0.43984962406 0.3686440678 0.16759776536 0
          0 0 0 0 0 0
          0 0 0 0 0 0.027932960894
          0 0 0 0 0 0
          0.027932960894 0 0 0.055084745763 0.071428571429 0.040345821326
          0.014164305949 0.012987012987 0.040345821326 0.071428571429 0.055084745763 0
          0 0.067669172932 0.11239193084 0.1074168798 0.037688442211 0.034562211982
          0.1074168798 0.11239193084 0.067669172932 0 0 0.074349442379
          0.16147308782 0.16834170854 0.12376237624 0.11286681716 0.16834170854 0.16147308782
          0.074349442379 0 0 0.084459459459 0.2 0.25806451613
          0.33860045147 0.39211618257 0.25806451613 0.2 0.084459459459 0
          0 0.093984962406 0.25360230548 0.36061381074 0.41959798995 0.46774193548
          0.36061381074 0.25360230548 0.093984962406 0 0 0.10593220339
          0.31493506494 0.40057636888 0.4447592068 0.49090909091 0.40057636888 0.31493506494
          0.10593220339 0 0 0.16759776536 0.3686440678 0.43984962406
          0.44609665428 0.49662162162 0.43984962406 0.3686440678 0.16759776536 0
          0 0.1677852349 0.36734693878 0.43891402715 0.44642857143 0.49593495935
          0.43891402715 0.36734693878 0.1677852349 0
        </DataArray>
        <DataArray type="Float64" Name="Displacement" NumberOfComponents="3" format="ascii" RangeMin="0.066523583645" RangeMax="0.089156166286">
          -0.025621724332 -0.038125085474 -0.057681263952 -0.023263903926 -0.038447037008 -0.057999928657
          -0.021268111212 -0.039376822147 -0.059198140741 -0.022782359527 -0.041858258832 -0.057457976198
          -0.02198239387 -0.042487917591 -0.058142107594 -0.021895401 -0.044596375172 -0.057433273692
          -0.0211075909 -0.044779949158 -0.057555995335 -0.022444775222 -0.044640020113 -0.059110066427
          -0.02081491678 -0.045375722725 -0.057639119601 -0.01797265207 -0.047226729229 -0.057669092003
          -0.024173220207 -0.038249889947 -0.056110079036 -0.018278183112 -0.0404386131 -0.060234407215
          -0.021186006375 -0.040878081184 -0.059082885813 -0.021145571444 -0.041855610408 -0.058540392947
          -0.02116750025 -0.043243383786 -0.058615736342 -0.021094716753 -0.04394411238 -0.058312844968
          -0.021007651863 -0.044525806833 -0.058480723248 -0.020997237807 -0.045950499219 -0.058325423787
          -0.023789691267 -0.047494293748 -0.0601044577 -0.017741384535 -0.047162526213 -0.055779629752
          -0.02137647888 -0.03954209359 -0.059830703239 -0.022827800146 -0.040817322479 -0.059549635649
          -0.020578210451 -0.041527225636 -0.059452618249 -0.019954618845 -0.041321899349 -0.060328899091
          -0.019972743194 -0.042594371286 -0.059986520843 -0.020340111666 -0.044471178597 -0.059677973345
          -0.019973387624 -0.04444751806 -0.060213968031 -0.019470148797 -0.046618837043 -0.059215486942
          -0.017118841582 -0.047693497708 -0.058939167335 -0.018661985763 -0.048399254508 -0.059571764945
          -0.016976637917 -0.038883632055 -0.063709395664 -0.017945377255 -0.040748902645 -0.061356991697
          -0.019136433839 -0.040739551572 -0.061504518137 -0.019991890708 -0.042759339181 -0.060599868745
          -0.019068243938 -0.0431262678 -0.060948750946 -0.019182261458 -0.04398806737 -0.060716318625
          -0.018311772174 -0.04527495254 -0.060633297503 -0.018867657157 -0.045694515915 -0.061276089777
          -0.020165944919 -0.048001513921 -0.061104369417 -0.021213485406 -0.047811051271 -0.063717393835
          -0.017811285589 -0.038746688085 -0.063556686885 -0.01897726288 -0.040804481464 -0.061853994907
          -0.017905972213 -0.040501190511 -0.062180079027 -0.016969495538 -0.041641044599 -0.062555665051
          -0.018178008058 -0.043298688228 -0.062286132805 -0.017989845366 -0.043780722523 -0.062044188641
          -0.01902877962 -0.044888827812 -0.062334429639 -0.018146832933 -0.045508696771 -0.061924802906
          -0.017077607979 -0.04763037077 -0.061842552825 -0.018267580865 -0.047780247221 -0.063412841779
          -0.016671525876 -0.039903865704 -0.064525651763 -0.018284708511 -0.039449061169 -0.063182166963
          -0.017634567765 -0.04117806959 -0.063598144232 -0.01790666057 -0.042445121729 -0.063805678107
          -0.018212997286 -0.043343366789 -0.063389006959 -0.015688179117 -0.044394840484 -0.063711718498
          -0.01606912433 -0.045437826155 -0.063807460733 -0.016381790176 -0.046249300822 -0.063321221269
          -0.015714813977 -0.04634074122 -0.063378662209 -0.017422320717 -0.048858375463 -0.064198309972
          -0.013741524851 -0.039430274671 -0.067689540807 -0.017123054065 -0.040097872475 -0.064435162511
          -0.016931776082 -0.041304993129 -0.064731203917 -0.015682282841 -0.042387355649 -0.064624608515
          -0.016949856346 -0.043887417979 -0.066309727886 -0.014964496233 -0.044814142226 -0.066497995445
          -0.016576466754 -0.045635323531 -0.064430736905 -0.015082516417 -0.046482673326 -0.06475167066
          -0.014841649041 -0.046860915954 -0.064619832662 -0.018189306554 -0.048377406119 -0.067259471443
          -0.014766903471 -0.038089460111 -0.065814509448 -0.014867828732 -0.039638429463 -0.066348371976
          -0.016559212698 -0.040898077261 -0.066187213704 -0.014955334159 -0.041290328177 -0.065606543831
          -0.014169340531 -0.043370767009 -0.065498841325 -0.015914038595 -0.044350107287 -0.065282000369
          -0.014600552551 -0.044323398949 -0.065574456367 -0.013142072526 -0.045885601248 -0.065953143974
          -0.015345951519 -0.046656504314 -0.066280390173 -0.015223452861 -0.046876266262 -0.06541460268
          -0.013511938049 -0.039201479352 -0.070079622684 -0.0086613655083 -0.041330168169 -0.07171959092
          -0.014053871897 -0.041816446649 -0.06773967478 -0.015291375288 -0.043271421721 -0.068177789704
          -0.011887776477 -0.043697872375 -0.06781789762 -0.01561883742 -0.045007996876 -0.067374701463
          -0.012971932 -0.046302838922 -0.068155404643 -0.013873153885 -0.046972752699 -0.067830734581
          -0.019328365998 -0.0484079328 -0.071784237452 -0.014625644028 -0.048263571927 -0.070137210878
          -0.018560340653 -0.042277391271 -0.064378891981 -0.012039955597 -0.036115603854 -0.065027818141
          -0.01444758869 -0.037362960265 -0.065303658309 -0.013114971406 -0.040351947349 -0.067277866655
          -0.0076966184393 -0.048591752382 -0.071905838974 -0.01858016456 -0.049388624847 -0.071863504003
          -0.013119178567 -0.043495788213 -0.067210144432 -0.011430842342 -0.042349081854 -0.064998294235
          -0.013931122993 -0.0433131363 -0.064811618232 -0.0077265192398 -0.051178651807 -0.063851076862
          -0.021702969591 -0.03786884317 -0.05686941475 -0.022992624689 -0.036777336704 -0.058916354725
          -0.021058031724 -0.03937238839 -0.058648243925 -0.021227336263 -0.041102530735 -0.057785714458
          -0.022023268693 -0.041392981113 -0.057733180325 -0.021967025888 -0.042609577698 -0.058210207816
          -0.022650978285 -0.043765959575 -0.057912447324 -0.023034020115 -0.044372120255 -0.05832099276
          -0.02092435099 -0.043746833654 -0.05851607162 -0.022237435598 -0.047008108336 -0.056747376753
          -0.020183822003 -0.039224844535 -0.058895811841 -0.020783749109 -0.038059662407 -0.058872908316
          -0.021360133491 -0.03922921907 -0.058781429457 -0.02137575527 -0.040549915822 -0.058778584809
          -0.020910856758 -0.041287020306 -0.059053255442 -0.021050319047 -0.042746510628 -0.058647543945
          -0.020608916474 -0.043372022012 -0.058832388999 -0.020643805388 -0.044254868853 -0.058667628961
          -0.021006663189 -0.045164318592 -0.058910910933 -0.021898685077 -0.048503869101 -0.058278290767
          -0.020291268101 -0.037991043827 -0.058679283608 -0.02042225105 -0.039182982055 -0.059151978534
          -0.01967721431 -0.039506851622 -0.060687975754 -0.020115185551 -0.04069201626 -0.059610932273
          -0.020077016988 -0.041524952224 -0.059907970396 -0.020017684638 -0.042646368302 -0.059788056689
          -0.019894069419 -0.043650148583 -0.059473969881 -0.020269492563 -0.044491686243 -0.060389671748
          -0.019511340443 -0.046164496897 -0.058940871497 -0.019586143614 -0.047086992478 -0.05836908703
          -0.019670128465 -0.037437160639 -0.061142050029 -0.0189655311 -0.03851045177 -0.061785829801
          -0.01937389971 -0.039695959994 -0.06094963623 -0.018801779301 -0.040272845934 -0.061655792575
          -0.019078227918 -0.041601204611 -0.060943247693 -0.019091077345 -0.042616515237 -0.060976475585
          -0.01928113604 -0.043357457798 -0.061506449668 -0.018655193229 -0.044730154604 -0.060779793522
          -0.019019232894 -0.045545997943 -0.061601247893 -0.018268850651 -0.046424391049 -0.060953576686
          -0.019294528755 -0.037232272256 -0.061136380945 -0.018233379119 -0.038681802807 -0.062560002705
          -0.018323260806 -0.039774305853 -0.062437229286 -0.017859048882 -0.040468870836 -0.062188438133
          -0.017997860515 -0.041406486789 -0.061996047766 -0.017942452538 -0.042537574943 -0.061938032181
          -0.017995542899 -0.043622818856 -0.06203383022 -0.017702684709 -0.044759965619 -0.062326216009
          -0.017610550339 -0.045667240943 -0.062452596466 -0.01678780235 -0.046285717712 -0.060969597573
          -0.017671401435 -0.037679384624 -0.063405502814 -0.017518775274 -0.038658551503 -0.063438042035
          -0.017700897113 -0.040035107626 -0.063829714287 -0.017756711538 -0.040715828204 -0.062890141872
          -0.017802782673 -0.04154393594 -0.063991526892 -0.016176701895 -0.042642236024 -0.064013963998
          -0.016150541616 -0.043801964898 -0.06298873792 -0.016170993354 -0.045018071195 -0.063460904102
          -0.0163881175 -0.045624121461 -0.063324469954 -0.016523619102 -0.046648022007 -0.063207117672
          -0.015652357659 -0.037682574428 -0.065118207734 -0.016758440755 -0.038910839666 -0.064978477847
          -0.016778976796 -0.039979324411 -0.065048213641 -0.016086442065 -0.040832245608 -0.064708915827
          -0.016734281839 -0.040890221916 -0.064710548711 -0.015218787645 -0.042206259597 -0.064639724399
          -0.015867972798 -0.043769960497 -0.064534681989 -0.015303520954 -0.044953746741 -0.064913352494
          -0.015262013625 -0.045884050359 -0.064759825803 -0.01639727153 -0.046788754322 -0.065022541777
          -0.01651716082 -0.036507310687 -0.064182052399 -0.015779869182 -0.03875648732 -0.065710473725
          -0.015859397978 -0.04074759337 -0.067251129189 -0.015978018828 -0.040193495055 -0.065950405651
          -0.017459270162 -0.040201561543 -0.066549400113 -0.012298055184 -0.041156371172 -0.066584673106
          -0.014034305945 -0.04316154965 -0.065940681142 -0.014107998456 -0.04581613343 -0.067188980476
          -0.014075995933 -0.045734128489 -0.065562429164 -0.013648158771 -0.045644386395 -0.063949196887
          -0.012959332587 -0.036035710415 -0.067533839713 -0.013676466121 -0.038162498112 -0.067376884925
          -0.014210698447 -0.039653764365 -0.067100280661 -0.014668110997 -0.040787929861 -0.067096346801
          -0.015156380916 -0.04063752214 -0.066602384683 -0.012919477829 -0.041694451029 -0.066446486079
          -0.013323917079 -0.043801234754 -0.066972895389 -0.013737597314 -0.04463734428 -0.066901372299
          -0.014194930481 -0.045156920495 -0.067131630371 -0.014856650159 -0.045311545414 -0.067439874238
          -0.015932755628 -0.040404265946 -0.067253018309 -0.013441754366 -0.037975368082 -0.067155428536
          -0.013327942216 -0.039248108988 -0.067693469644 -0.014803283327 -0.040008213176 -0.066999863615
          -0.015470743683 -0.040136204223 -0.065929298815 -0.010921097712 -0.041125111689 -0.065603621984
          -0.011273169759 -0.043013013695 -0.067042421026 -0.012364716384 -0.044572977701 -0.067627851865
          -0.012376991835 -0.044882020237 -0.06684973259 -0.0099469866382 -0.049549659786 -0.066819199135
          -0.022159775873 -0.036168662353 -0.058017110669 -0.022286376143 -0.037117395746 -0.057225211001
          -0.021607538147 -0.038310618081 -0.058363622153 -0.022075848494 -0.039105218037 -0.057828919678
          -0.022256549683 -0.041091812865 -0.056789464035 -0.021723321055 -0.041642699053 -0.057049089891
          -0.021824115047 -0.042176579269 -0.05769007393 -0.022464666266 -0.043338831767 -0.058303937166
          -0.021559524533 -0.044073378202 -0.057055539441 -0.021966472035 -0.04509430268 -0.057520261525
          -0.02166392855 -0.035305444087 -0.058909347619 -0.021232343673 -0.0374519813 -0.058436449603
          -0.02112111793 -0.037761690336 -0.059209056979 -0.020820325739 -0.039483396802 -0.0589045258
          -0.021022481289 -0.040273813289 -0.058836411839 -0.021076561123 -0.041335313036 -0.058797029505
          -0.021254230626 -0.042394231729 -0.058871317957 -0.020924574878 -0.042759264223 -0.059099963448
          -0.020848120064 -0.044367312211 -0.058258164202 -0.020491372562 -0.044323788944 -0.058668392299
          -0.020383868148 -0.03619865951 -0.060340060791 -0.019657709606 -0.037851574604 -0.060090204167
          -0.020080644131 -0.038119654747 -0.060148792616 -0.020045397241 -0.039350131447 -0.059970993555
          -0.020073326025 -0.040238015455 -0.059976842913 -0.020198719767 -0.041082987248 -0.059799324263
          -0.020051103852 -0.042472777239 -0.059811977022 -0.020097055172 -0.043241545731 -0.059958189521
          -0.02029799302 -0.044719803406 -0.059922574123 -0.019533547623 -0.045150026238 -0.060171620644
          -0.019302873795 -0.036824365402 -0.061044596382 -0.019756937082 -0.037646641513 -0.060862614935
          -0.019058819372 -0.0384351649 -0.061322428049 -0.019089057548 -0.039366724427 -0.061248287621
          -0.019060934423 -0.040271946546 -0.061193296757 -0.019042881417 -0.041137550923 -0.060976739812
          -0.018985941157 -0.042413782673 -0.061143927692 -0.019025558432 -0.04348251372 -0.061160384353
          -0.018374133893 -0.0446605098 -0.060738689684 -0.018745904112 -0.045886809061 -0.0608633298
          -0.018658869946 -0.036676661559 -0.062149192307 -0.018539622427 -0.037603340693 -0.062384327941
          -0.018366725583 -0.038604730828 -0.062517010049 -0.018139775166 -0.039494229352 -0.062474572636
          -0.018134337243 -0.040145654652 -0.062374769938 -0.01803078884 -0.041296382905 -0.062312881651
          -0.017912822818 -0.042440356206 -0.062326624903 -0.017669342869 -0.04359683823 -0.062343362666
          -0.017602752123 -0.044685846356 -0.062238216397 -0.017483403756 -0.045645474165 -0.061967875679
          -0.017814054415 -0.037621131025 -0.063661746967 -0.017487056848 -0.037556424519 -0.063615173833
          -0.017452405327 -0.038595254277 -0.063741113195 -0.017055896592 -0.039443485307 -0.063574528909
          -0.017056024335 -0.040227007022 -0.063488324884 -0.016814174714 -0.041300367869 -0.0636463515
          -0.016958885293 -0.042440668643 -0.06349628281 -0.0164154707 -0.043715531428 -0.06355658785
          -0.016331459496 -0.04464531397 -0.063335273046 -0.016353098234 -0.046622196555 -0.063491082108
          -0.01674483685 -0.036492574644 -0.064755514723 -0.016908960993 -0.037688189844 -0.064804375739
          -0.016736716977 -0.038738742657 -0.065039231518 -0.016486508757 -0.03938620271 -0.064960111687
          -0.016365752055 -0.040410440115 -0.065195602811 -0.015785574949 -0.041328803095 -0.064990241626
          -0.015471091203 -0.042454391298 -0.06497037155 -0.015282870219 -0.04372038643 -0.064832084915
          -0.015295546904 -0.04470810608 -0.064678302986 -0.015334104906 -0.045525822432 -0.064502727091
          -0.015551342012 -0.036387595155 -0.066179512534 -0.017313540239 -0.037992599991 -0.065577888973
          -0.016274029551 -0.038874822857 -0.066509451131 -0.017014898878 -0.039467160582 -0.06652608924
          -0.016029471754 -0.039916211161 -0.065982962648 -0.013957190986 -0.04102266606 -0.066021597956
          -0.013085562872 -0.042515109969 -0.06639167246 -0.013775007238 -0.044042075771 -0.066468072262
          -0.012543851706 -0.045131269563 -0.065274213535 -0.01458437613 -0.045537870333 -0.065949373152
          -0.013100950888 -0.034625539527 -0.067918214047 -0.015106606749 -0.037092107085 -0.0668419278
          -0.014800152008 -0.039377721417 -0.067617522168 -0.014279134262 -0.04012679609 -0.067436126507
          -0.014805352876 -0.040684044915 -0.067745246945 -0.013175493969 -0.041860175494 -0.067606363614
          -0.013788153392 -0.043043261876 -0.067225519994 -0.013225224881 -0.044419981342 -0.067440191913
          -0.01299885857 -0.044237807929 -0.066587123014 -0.014750393339 -0.044084830449 -0.067554158003
          -0.010823198835 -0.033691320122 -0.068796678872 -0.012091568738 -0.03692534289 -0.069105506106
          -0.014596943435 -0.039360209253 -0.067616919078 -0.016010790277 -0.03935471833 -0.068534114291
          -0.013546221692 -0.040410204936 -0.068504461616 -0.012383170085 -0.041331357617 -0.068420999025
          -0.010001137892 -0.0423666858 -0.068382329228 -0.011523639367 -0.044392653651 -0.067425315111
          -0.013577382424 -0.044122931963 -0.068857213653 -0.015187626288 -0.042598042531 -0.068536859054
          -0.020357393841 -0.036860112363 -0.058068940272 -0.021794795488 -0.03625919103 -0.057513658603
          -0.021130700412 -0.038081655689 -0.057114068255 -0.022311605478 -0.038040060221 -0.057439476838
          -0.022009640178 -0.039070592515 -0.057787804407 -0.021913685464 -0.039936434907 -0.057616829635
          -0.021738507146 -0.041053156506 -0.05718226775 -0.023112893298 -0.043100986639 -0.056933437225
          -0.022547278313 -0.043470442937 -0.057294609291 -0.023884817687 -0.045804229194 -0.057767649319
          -0.020572084854 -0.035153258342 -0.058649873351 -0.020951832483 -0.03645128483 -0.05873841119
          -0.020573868927 -0.037554277732 -0.058936758774 -0.021031321612 -0.037994428717 -0.058834040412
          -0.021064217034 -0.039080632858 -0.058740385301 -0.021132183367 -0.040079885659 -0.058685856883
          -0.021111239371 -0.040987716759 -0.058818727488 -0.021572947353 -0.042531182591 -0.058840459021
          -0.021289726242 -0.043395264451 -0.058605690698 -0.021560623766 -0.044380524212 -0.058302615768
          -0.020347003942 -0.034715381516 -0.06023044472 -0.019983471834 -0.036242013958 -0.060142711304
          -0.019986954649 -0.037146095349 -0.060004744317 -0.02010127689 -0.038094184655 -0.059975155368
          -0.020030623269 -0.038994585302 -0.060016716289 -0.020125559299 -0.039999639404 -0.059906390602
          -0.020043554477 -0.041088933 -0.059879592295 -0.020162137661 -0.042058413044 -0.059855338313
          -0.020205167438 -0.043316613259 -0.059949886959 -0.01964002068 -0.043746172599 -0.059867790245
          -0.019314711473 -0.035868818825 -0.060866877838 -0.019620933699 -0.036304337901 -0.061127763516
          -0.019157484557 -0.037229230506 -0.061232433213 -0.019023591544 -0.03810823075 -0.061237210451
          -0.018994154554 -0.038955471005 -0.061213089431 -0.019111594549 -0.039990139455 -0.061135770553