<?xml version="1.0"?>
<VTKFile type="UnstructuredGrid" version="0.1" byte_order="LittleEndian" compressor="vtkZLibDataCompressor">
  <UnstructuredGrid>
    <FieldData>
      <DataArray type="Float64" Name="TIME" NumberOfTuples="1" format="ascii" RangeMin="0.80129046406" RangeMax="0.80129046406">
        0.80129046406
      </DataArray>
    </FieldData>
    <Piece NumberOfPoints="1000" NumberOfCells="0">
      <PointData>
        <DataArray type="Float64" Name="Damage" format="ascii" RangeMin="0" RangeMax="0.50406504065">
          0 0 0 0 0 0
          0 0 0 0 0 0.027932960894
          0 0 0 0 0 0
          0.027932960894 0 0 0.055084745763 0.071428571429 0.040345821326
          0.014164305949 0.012987012987 0.040345821326 0.071428571429 0.055084745763 0
          0 0.067669172932 0.11239193084 0.1074168798 0.037688442211 0.034562211982
          0.1074168798 0.11239193084 0.067669172932 0 0 0.074349442379
          0.16147308782 0.16834170854 0.12376237624 0.11286681716 0.16834170854 0.16147308782
          0.074349442379 0 0 0.084459459459 0.2 0.25806451613
          0.33860045147 0.39211618257 0.25806451613 0.2 0.084459459459 0
          0 0.093984962406 0.25360230548 0.36061381074 0.41959798995 0.46774193548
          0.36061381074 0.25360230548 0.093984962406 0 0 0.10593220339
          0.31493506494 0.40057636888 0.4447592068 0.49090909091 0.40057636888 0.31493506494
          0.10593220339 0 0 0.17318435754 0.3686440678 0.43984962406
          0.44981412639 0.5 0.43984962406 0.3686440678 0.17318435754 0
          0.016129032258 0.18791946309 0.36734693878 0.44343891403 0.45535714286 0.50406504065
          0.44343891403 0.36734693878 0.18791946309 0.008064516129 0 0
          0 0 0 0 0 0
          0 0 0 0.027906976744 0 0
          0 0 0 0 0.027906976744 0
          0 0.056338028169 0.072776280323 0.040669856459 0.014117647059 0.012931034483
          0.040669856459 0.072776280323 0.056338028169 0 0 0.06875
          0.11483253589 0.10828025478 0.0375782881 0.034416826004 0.10828025478 0.11483253589
          0.06875 0 0 0.074303405573 0.16235294118 0.16910229645
          0.12371134021 0.11257035647 0.16910229645 0.16235294118 0.074303405573 0
          0 0.084269662921 0.20043103448 0.25812619503 0.33771106942 0.39242685026
          0.25812619503 0.20043103448 0.084269662921 0 0 0.09375
          0.25358851675 0.36093418259 0.41962421712 0.46845124283 0.36093418259 0.25358851675
          0.09375 0 0 0.10563380282 0.3153638814 0.4019138756
          0.44470588235 0.49137931034 0.4019138756 0.3153638814 0.10563380282 0
          0 0.16744186047 0.36971830986 0.440625 0.44582043344 0.49719101124
          0.440625 0.36971830986 0.16744186047 0 0.013422818792 0.17877094972
          0.3686440678 0.43984962406 0.44609665428 0.49662162162 0.43984962406 0.3686440678
          0.17318435754 0 0 0 0 0
          0 0 0 0 0 0
          0 0.024647887324 0 0 0 0
          0 0 0.024647887324 0 0 0.051212938005
          0.06875 0.038817005545 0.012635379061 0.011666666667 0.038817005545 0.06875
          0.051212938005 0 0 0.064593301435 0.10905730129 0.10491803279
          0.036858974359 0.034023668639 0.10491803279 0.10905730129 0.064593301435 0
          0 0.070588235294 0.15523465704 0.16506410256 0.12283464567 0.11271676301
          0.16506410256 0.15523465704 0.070588235294 0 0 0.081896551724
          0.19333333333 0.25443786982 0.33959537572 0.38985313752 0.25443786982 0.19333333333
          0.081896551724 0 0 0.093301435407 0.24768946396 0.35573770492
          0.41987179487 0.46449704142 0.35573770492 0.24768946396 0.093301435407 0
          0 0.10781671159 0.30833333333 0.39556377079 0.4440433213 0.48666666667
          0.39556377079 0.30833333333 0.10781671159 0 0 0.16197183099
          0.35579514825 0.43062200957 0.44470588235 0.49137931034 0.43062200957 0.35579514825
          0.16197183099 0 0 0.16101694915 0.3538961039 0.42939481268
          0.4447592068 0.49090909091 0.42939481268 0.3538961039 0.16101694915 0
          0 0 0 0 0 0
          0 0 0 0 0 0.025
          0 0 0 0 0 0
          0.025 0 0 0.05023923445 0.068391866913 0.039344262295
          0.012820512821 0.011834319527 0.039344262295 0.068391866913 0.05023923445 0
          0 0.063694267516 0.10819672131 0.10465116279 0.036984352774 0.034120734908
          0.10465116279 0.10819672131 0.063694267516 0 0 0.070981210856
          0.15544871795 0.16500711238 0.12290502793 0.11282051282 0.16500711238 0.15544871795
          0.070981210856 0 0 0.082217973231 0.19378698225 0.25459317585
          0.33974358974 0.38981042654 0.25459317585 0.19378698225 0.082217973231 0
          0 0.093418259023 0.24918032787 0.35610465116 0.41963015647 0.46456692913
          0.35610465116 0.24918032787 0.093418259023 0 0 0.10765550239
          0.30868761553 0.39508196721 0.44391025641 0.48668639053 0.39508196721 0.30868761553
          0.10765550239 0 0 0.1625 0.35645933014 0.43099787686
          0.44467640919 0.4913957935 0.43099787686 0.35645933014 0.1625 0
          0 0.16165413534 0.35446685879 0.42966751918 0.44472361809 0.49078341014
          0.42966751918 0.35446685879 0.16165413534 0 0 0
          0 0 0 0 0 0
          0 0 0 0.02786377709 0 0
          0 0 0 0 0.02786377709 0
          0 0.054117647059 0.070397111913 0.040064102564 0.014173228346 0.013005780347
          0.040064102564 0.070397111913 0.054117647059 0 0 0.066805845511
          0.11057692308 0.106685633 0.037709497207 0.034615384615 0.106685633 0.11057692308
          0.066805845511 0 0 0.074226804124 0.16062992126 0.16759776536
          0.12362637363 0.11292346299 0.16759776536 0.16062992126 0.074226804124 0
          0 0.084427767355 0.19942196532 0.25769230769 0.33877038896 0.39145496536
          0.25769230769 0.19942196532 0.084427767355 0 0 0.093945720251
          0.25320512821 0.35988620199 0.41899441341 0.46666666667 0.35988620199 0.25320512821
          0.093945720251 0 0 0.10588235294 0.31407942238 0.39903846154
          0.44409448819 0.48988439306 0.39903846154 0.31407942238 0.10588235294 0
          0 0.16718266254 0.36705882353 0.43841336117 0.44536082474 0.49530956848
          0.43841336117 0.36705882353 0.16718266254 0 0 0.16728624535
          0.36543909348 0.43718592965 0.44554455446 0.49435665914 0.43718592965 0.36543909348
          0.16728624535 0 0 0 0 0
          0 0 0 0 0 0
          0 0.025280898876 0 0 0 0
          0 0 0.025280898876 0 0 0.049568965517
          0.066666666667 0.038461538462 0.013005780347 0.012016021362 0.038461538462 0.066666666667
          0.049568965517 0 0 0.06309751434 0.1050295858 0.10367454068
          0.037179487179 0.034360189573 0.10367454068 0.1050295858 0.06309751434 0
          0 0.071294559099 0.15462427746 0.1641025641 0.12296110414 0.11316397229
          0.1641025641 0.15462427746 0.071294559099 0 0 0.082616179002
          0.19359145527 0.25473933649 0.34064665127 0.38930481283 0.25473933649 0.19359145527
          0.082616179002 0 0 0.093690248566 0.24852071006 0.35564304462
          0.41923076923 0.46327014218 0.35564304462 0.24852071006 0.093690248566 0
          0 0.10775862069 0.30833333333 0.39349112426 0.4436416185 0.48598130841
          0.39349112426 0.30833333333 0.10775862069 0 0 0.16292134831
          0.35560344828 0.43021032505 0.44465290807 0.49053356282 0.43021032505 0.35560344828
          0.16292134831 0 0 0.16216216216 0.35324675325 0.42857142857
          0.44469525959 0.48962655602 0.42857142857 0.35324675325 0.16216216216 0
          0 0 0 0 0 0
          0 0 0 0 0 0.025
          0 0 0 0 0 0
          0.025 0 0 0.05023923445 0.068391866913 0.039344262295
          0.012820512821 0.011834319527 0.039344262295 0.068391866913 0.05023923445 0
          0 0.063694267516 0.10819672131 0.10465116279 0.036984352774 0.034120734908
          0.10465116279 0.10819672131 0.063694267516 0 0 0.070981210856
          0.15544871795 0.16500711238 0.12290502793 0.11282051282 0.16500711238 0.15544871795
          0.070981210856 0 0 0.082217973231 0.19378698225 0.25459317585
          0.33974358974 0.38981042654 0.25459317585 0.19378698225 0.082217973231 0
          0 0.093418259023 0.24918032787 0.35610465116 0.41963015647 0.46456692913
          0.35610465116 0.24918032787 0.093418259023 0 0 0.10765550239
          0.30868761553 0.39508196721 0.44391025641 0.48668639053 0.39508196721 0.30868761553
          0.10765550239 0 0 0.1625 0.35645933014 0.43099787686
          0.44467640919 0.4913957935 0.43099787686 0.35645933014 0.1625 0
          0 0.16165413534 0.35446685879 0.42966751918 0.44472361809 0.49078341014
          0.42966751918 0.35446685879 0.16165413534 0 0 0
          0 0 0 0 0 0
          0 0 0 0.024647887324 0 0
          0 0 0 0 0.024647887324 0
          0 0.051212938005 0.06875 0.038817005545 0.012635379061 0.011666666667
          0.038817005545 0.06875 0.051212938005 0 0 0.064593301435
          0.10905730129 0.10491803279 0.036858974359 0.034023668639 0.10491803279 0.10905730129
          0.064593301435 0 0 0.070588235294 0.15523465704 0.16506410256
          0.12283464567 0.11271676301 0.16506410256 0.15523465704 0.070588235294 0
          0 0.081896551724 0.19333333333 0.25443786982 0.33959537572 0.38985313752
          0.25443786982 0.19333333333 0.081896551724 0 0 0.093301435407
          0.24768946396 0.35573770492 0.41987179487 0.46449704142 0.35573770492 0.24768946396
          0.093301435407 0 0 0.10781671159 0.30833333333 0.39556377079
          0.4440433213 0.48666666667 0.39556377079 0.30833333333 0.10781671159 0
          0 0.16197183099 0.35579514825 0.43062200957 0.44470588235 0.49137931034
          0.43062200957 0.35579514825 0.16197183099 0 0 0.16101694915
          0.3538961039 0.42939481268 0.4447592068 0.49090909091 0.42939481268 0.3538961039
          0.16101694915 0 0 0 0 0
          0 0 0 0 0 0
          0 0.027906976744 0 0 0 0
          0 0 0.027906976744 0 0 0.056338028169
          0.072776280323 0.040669856459 0.014117647059 0.012931034483 0.040669856459 0.072776280323
          0.056338028169 0 0 0.06875 0.11483253589 0.10828025478
          0.0375782881 0.034416826004 0.10828025478 0.11483253589 0.06875 0
          0 0.074303405573 0.16235294118 0.16910229645 0.12371134021 0.11257035647
          0.16910229645 0.16235294118 0.074303405573 0 0 0.084269662921
          0.20043103448 0.25812619503 0.33771106942 0.39242685026 0.25812619503 0.20043103448
          0.084269662921 0 0 0.09375 0.25358851675 0.36093418259
          0.41962421712 0.46845124283 0.36093418259 0.25358851675 0.09375 0
          0 0.10563380282 0.3153638814 0.4019138756 0.44470588235 0.49137931034
          0.4019138756 0.3153638814 0.10563380282 0 0 0.16744186047
          0.36971830986 0.440625 0.44582043344 0.49719101124 0.440625 0.36971830986
          0.16744186047 0 0 0.16759776536 0.3686440678 0.43984962406
          0.44609665428 0.49662162162 0.43984962406 0.3686440678 0.17318435754 0
          0 0 0 0 0 0
          0 0 0 0 0 0.027932960894
          0 0 0 0 0 0
          0.027932960894 0 0 0.055084745763 0.071428571429 0.040345821326
          0.014164305949 0.012987012987 0.040345821326 0.071428571429 0.055084745763 0
          0 0.067669172932 0.11239193084 0.1074168798 0.037688442211 0.034562211982
          0.1074168798 0.11239193084 0.067669172932 0 0 0.074349442379
          0.16147308782 0.16834170854 0.12376237624 0.11286681716 0.16834170854 0.16147308782
          0.074349442379 0 0 0.084459459459 0.2 0.25806451613
          0.33860045147 0.39211618257 0.25806451613 0.2 0.084459459459 0
          0 0.093984962406 0.25360230548 0.36061381074 0.41959798995 0.46774193548
          0.36061381074 0.25360230548 0.093984962406 0 0 0.10593220339
          0.31493506494 0.40057636888 0.4447592068 0.49090909091 0.40057636888 0.31493506494
          0.10593220339 0 0 0.16759776536 0.3686440678 0.43984962406
          0.44981412639 0.5 0.43984962406 0.3686440678 0.16759776536 0
          0.008064516129 0.1744966443 0.36734693878 0.44343891403 0.45535714286 0.50406504065
          0.44343891403 0.36734693878 0.18120805369 0.008064516129
        </DataArray>
        <DataArray type="Float64" Name="Displacement" NumberOfComponents="3" format="ascii" RangeMin="0.18165179348" RangeMax="1.5199921642">
          0.1729159015 -0.47002852629 -0.46890182388 0.14770265234 -0.41488668004 -0.4482200414
          0.13865125093 -0.36186096356 -0.42784573143 0.12206967386 -0.3114433165 -0.40564817717
          0.096974850254 -0.23969054956 -0.3849776004 0.084200821264 -0.19434349927 -0.3629635657
          0.066183761768 -0.13955256875 -0.34247297208 0.044805383142 -0.07991552105 -0.32520938073
          0.029273931725 -0.022676113294 -0.29981200203 0.0083180992687 0.034601397722 -0.28238344826
          0.11407094993 -0.52096922087 -0.39706162888 0.10107482439 -0.46201953859 -0.37832745579
          0.080251849524 -0.40684422727 -0.35679560024 0.064711963388 -0.35366718823 -0.33622924858
          0.048132796263 -0.29898132446 -0.31565499876 0.029681359906 -0.24209115115 -0.29424829412
          0.011076524068 -0.18271384518 -0.27328919751 -0.010214567575 -0.12334648246 -0.25231029598
          -0.029811659232 -0.068737224414 -0.233693741 -0.040390824029 -0.010345707741 -0.20591178873
          0.06342112287 -0.56524027719 -0.32986554516 0.044309056347 -0.50952756777 -0.30991574644
          0.024578457607 -0.45286745102 -0.28703380594 0.0073053522684 -0.39661012099 -0.26583315538
          -0.01019079988 -0.34050828762 -0.24387001904 -0.029887928186 -0.28274986209 -0.22330313261
          -0.045633195145 -0.22772501732 -0.20306274933 -0.064024997364 -0.17088004952 -0.18271830815
          -0.083241642573 -0.11397124055 -0.16387672508 -0.10159383713 -0.055022217298 -0.14017354221
          0.0039199882244 -0.61241841858 -0.25848521405 -0.013457110371 -0.5567037928 -0.23650447188
          -0.030278521897 -0.49775365875 -0.21699014158 -0.048792644266 -0.4423293896 -0.19561396251
          -0.067265566981 -0.38496238889 -0.17411330112 -0.085107681496 -0.32820797421 -0.15277207938
          -0.10124390282 -0.27200967544 -0.13303689066 -0.12023764375 -0.21499575099 -0.11260742138
          -0.13652889254 -0.15979112695 -0.089370799925 -0.15467005575 -0.099936844239 -0.068068019289
          -0.049898285094 -0.6571943367 -0.18982750456 -0.069681577225 -0.6031716595 -0.16723338747
          -0.087338300155 -0.54452262292 -0.1469970183 -0.10430061595 -0.48659835752 -0.12524952003
          -0.12303232521 -0.4308427707 -0.10388159803 -0.13985112792 -0.37397600595 -0.083799529713
          -0.15810194936 -0.31717794326 -0.063325681901 -0.17480592401 -0.25977391341 -0.041617860109
          -0.19173119254 -0.20437618861 -0.020015138101 -0.21101810246 -0.1470383273 0.00056805923172
          -0.10804716278 -0.70491871905 -0.11864494106 -0.12578035365 -0.64861405227 -0.09739340209
          -0.14354238239 -0.59051648768 -0.076757095026 -0.16153454022 -0.53363084823 -0.054716622311
          -0.18136414456 -0.47629450296 -0.034136675039 -0.19338999307 -0.41673084735 -0.01401111937
          -0.21242785496 -0.36189123468 0.0074580654711 -0.23055763935 -0.30539284504 0.028583787379
          -0.24716491985 -0.24968043082 0.04978114927 -0.26377329909 -0.19243200476 0.072261500644
          -0.16384631115 -0.75117475458 -0.049361098218 -0.18257712968 -0.6948772896 -0.027806000919
          -0.20046648095 -0.6369421209 -0.0057246529401 -0.21971463147 -0.58026599951 0.013664757095
          -0.23571482619 -0.5228619944 0.038129278387 -0.24885495042 -0.4621789316 0.056225701765
          -0.26779545989 -0.40789443196 0.077350125868 -0.28548955679 -0.35024989157 0.099569028619
          -0.30207043445 -0.29491047772 0.11941786262 -0.32055774198 -0.23745241071 0.14348076795
          -0.22008650964 -0.80015293953 0.020677947951 -0.23830454164 -0.74024487552 0.041826606275
          -0.25839379074 -0.68444682574 0.062834371543 -0.27780115055 -0.62655390094 0.084444897696
          -0.29629158182 -0.56701818343 0.10759637966 -0.30651619961 -0.50848316705 0.12696605092
          -0.32157640994 -0.45108861621 0.14739254534 -0.3386850884 -0.39525986324 0.16856694153
          -0.35940749832 -0.33950018475 0.18877737935 -0.37427149798 -0.28411045988 0.21354526435
          -0.27913926311 -0.8458664564 0.096167629516 -0.29412415182 -0.78741176261 0.10745943688
          -0.3168648684 -0.7303743227 0.13329543799 -0.33364157418 -0.67231551332 0.1562951068
          -0.35155640519 -0.61305306485 0.17938697383 -0.36346532906 -0.55690293939 0.19796745024
          -0.37807153413 -0.49752860491 0.21825798082 -0.39584198957 -0.44044005254 0.23905058999
          -0.41432901252 -0.38568874034 0.25384023104 -0.43649459718 -0.32754499624 0.28265638548
          -0.34143442336 -0.90228327173 0.15714741435 -0.35759545604 -0.83690537896 0.19306448508
          -0.37284749371 -0.77520672336 0.1990597401 -0.39660299937 -0.72011417101 0.22087960808
          -0.39139398788 -0.65892309703 0.25189621072 -0.42418236112 -0.617750017 0.25220090767
          -0.43711072681 -0.54326409405 0.28296302339 -0.45544107757 -0.48757102947 0.30453851414
          -0.47243208769 -0.43142839669 0.34311866125 -0.48443576643 -0.37365844636 0.34691595445
          0.20428802858 -0.5460825434 -0.49951211575 0.18504673627 -0.48818527995 -0.47739283103
          0.16173959421 -0.43447547442 -0.45413749208 0.14353829967 -0.37683785767 -0.43282551609
          0.12309497575 -0.31565933195 -0.4129115564 0.10484769431 -0.25965773236 -0.39223911851
          0.088505984755 -0.2059557691 -0.37016945565 0.072478258832 -0.15298143186 -0.34937667601
          0.049972239355 -0.096905702809 -0.33248768005 0.03209594362 -0.041907547213 -0.31380236899
          0.14196964991 -0.59042702549 -0.42811876435 0.12217446605 -0.53480596822 -0.40489890716
          0.10481603797 -0.47697758348 -0.38469714098 0.085947838493 -0.42154627101 -0.36323082813
          0.068557214984 -0.36437015943 -0.3421979603 0.049976683009 -0.30716352012 -0.32100488311
          0.033660750403 -0.25066740256 -0.30074472051 0.014564566192 -0.19457163326 -0.27975076016
          -0.0023601271647 -0.13794864918 -0.25805107771 -0.021502582314 -0.083572469791 -0.24060389767
          0.08681844224 -0.63517395578 -0.35790333065 0.066406063932 -0.57991800224 -0.33539048193
          0.048747048187 -0.52232504466 -0.31429892633 0.03022423732 -0.46586266285 -0.29293471012
          0.011796736485 -0.40834568378 -0.27227322448 -0.0053971185249 -0.35188795695 -0.2512304559
          -0.023211471185 -0.29517068837 -0.2303256557 -0.040755360114 -0.2396086391 -0.20956215797
          -0.057901355636 -0.18302673841 -0.18849427536 -0.077206579875 -0.12714139112 -0.16921983036
          0.028402305804 -0.68385563146 -0.28638435661 0.010291350942 -0.62560000454 -0.2653862929
          -0.0076776941435 -0.5688943941 -0.24372633969 -0.025677181332 -0.51109781323 -0.22252133264
          -0.043632634535 -0.45395137398 -0.20177841279 -0.061402367015 -0.39760646457 -0.18091016957
          -0.078631600378 -0.34062287157 -0.16009151087 -0.096399001005 -0.28430687501 -0.13905238998
          -0.11334839873 -0.22742596092 -0.11821549517 -0.13041386348 -0.17198858171 -0.096625744622
          -0.026933609806 -0.72643813428 -0.21781221752 -0.045374259343 -0.67146949744 -0.19512654527
          -0.062979492414 -0.61474765892 -0.17429632532 -0.081896579302 -0.55685515737 -0.15287659621
          -0.099556983022 -0.4999501375 -0.13146810103 -0.11669357241 -0.44320952582 -0.11095130059
          -0.13423530947 -0.3861139054 -0.090382173558 -0.15141277657 -0.33039749698 -0.07002125937
          -0.16895706966 -0.2738015115 -0.048095766562 -0.1884492724 -0.21593592931 -0.028989544001
          -0.084817620307 -0.77508373064 -0.14621827611 -0.10233340461 -0.7171945437 -0.12555599035
          -0.11935040315 -0.65972858743 -0.103785774 -0.1372959413 -0.6021073577 -0.082252918926
          -0.15598062674 -0.54590286849 -0.06117532295 -0.17175050969 -0.48822234308 -0.040945686776
          -0.18995613786 -0.43131697186 -0.020777804788 -0.20729922579 -0.37503084517 0.00049625987105
          -0.22394296711 -0.31802081213 0.021909091889 -0.24149430643 -0.26209759595 0.044660943904
          -0.14032092589 -0.82098672342 -0.077992551494 -0.15874706609 -0.76265500457 -0.055831180439
          -0.17611132709 -0.70609961179 -0.034013373575 -0.19406620119 -0.64887156736 -0.012585605891
          -0.21444708294 -0.59175742226 0.0077824970586 -0.22700701028 -0.53287715396 0.028997205883
          -0.24505105474 -0.47757550685 0.049906440918 -0.26319721411 -0.42079509142 0.070754621906
          -0.28046679037 -0.36377627573 0.091530158243 -0.29771025003 -0.30697492567 0.11183667862
          -0.1985701051 -0.86889393308 -0.0062393119587 -0.21510195991 -0.80957968571 0.01464797313
          -0.23337787855 -0.75265448268 0.035198420271 -0.25154221169 -0.69492989208 0.057796986018
          -0.27237231196 -0.6373857992 0.079276429015 -0.28117082811 -0.57610294959 0.099180821377
          -0.3003385083 -0.52195284341 0.12075343132 -0.31747948801 -0.46522024254 0.14076477524
          -0.33518815638 -0.40896170548 0.16232983117 -0.35241309064 -0.35193358885 0.18424238186
          -0.2548523214 -0.91431656077 0.064463200593 -0.27176636851 -0.85459619484 0.083546549614
          -0.29091291359 -0.79898919789 0.10544269409 -0.3099612157 -0.7409502232 0.12720860916
          -0.32816489002 -0.68398542576 0.15014003925 -0.33791496573 -0.62519017978 0.16985186491
          -0.35587356654 -0.56663567845 0.19048237209 -0.37372238181 -0.51109096899 0.21082298071
          -0.39286812743 -0.4538241879 0.23136669895 -0.40753750231 -0.39730956725 0.25546932019
          -0.31472931682 -0.96346571104 0.13538076259 -0.32983671309 -0.90317155545 0.15263452055
          -0.35049192572 -0.84800718081 0.17328805344 -0.36963394639 -0.78793409234 0.19767251903
          -0.38820779343 -0.7312820313 0.22010254023 -0.39582857413 -0.67255401198 0.23785799799
          -0.40942082759 -0.61027052858 0.26190229208 -0.42432069068 -0.55404524393 0.27977495387
          -0.44294102589 -0.4972846038 0.30027302137 -0.46126261183 -0.44338639663 0.32435800336
          0.21627333521 -0.61207358482 -0.52544046955 0.20381069961 -0.55729339279 -0.50421929549
          0.1849042831 -0.49984859122 -0.4818065013 0.16682050746 -0.44428210499 -0.46025827803
          0.14649370413 -0.38569568553 -0.44019437383 0.12811313474 -0.32902658047 -0.41883422633
          0.11086548425 -0.27629732072 -0.39793341612 0.092450293244 -0.21948834962 -0.37792665027
          0.076208584045 -0.16344859484 -0.35775420657 0.059033455381 -0.10397537957 -0.33801577727
          0.16631754755 -0.66116270655 -0.45455330993 0.14583291299 -0.60350237288 -0.43328445629
          0.12756260836 -0.54635178609 -0.41214974327 0.10941152939 -0.48913475472 -0.3910764895
          0.091083766973 -0.43248974947 -0.3699103233 0.073617390721 -0.37616213631 -0.34914267796
          0.055588061402 -0.31925640814 -0.32826914628 0.037882010498 -0.26285377653 -0.30772394385
          0.02004340269 -0.20669852533 -0.28661693599 0.0033556905308 -0.15298727696 -0.26593361057
          0.10686284336 -0.70400772297 -0.3850983205 0.089721259771 -0.64982336363 -0.36283397653
          0.072036638286 -0.59234310962 -0.3419783583 0.053697955273 -0.53486745619 -0.32048282397
          0.035620296686 -0.47821156102 -0.2995253467 0.017866344479 -0.42164010015 -0.27856111108
          -0.00030431057414 -0.36483515924 -0.2580095676 -0.017424610593 -0.30868760927 -0.23733064851
          -0.034021106728 -0.25179479355 -0.21653462492 -0.053792668837 -0.19372662491 -0.19597564464
          0.051778674291 -0.75239774012 -0.31394952774 0.03382838869 -0.69499658675 -0.29328478853
          0.015939429177 -0.63727209643 -0.27167335486 -0.0021677282935 -0.58012463932 -0.25050545374
          -0.020369649746 -0.52320413712 -0.22918484267 -0.038252408224 -0.46676104963 -0.2085136119
          -0.055892330226 -0.41012076422 -0.18804147555 -0.073115784422 -0.35389813371 -0.16716334057
          -0.09030077739 -0.29748844936 -0.14620399171 -0.10752873232 -0.24068874702 -0.12412034451
          -0.0035258089579 -0.79702513321 -0.24471683391 -0.02149711262 -0.74069538144 -0.22272638192
          -0.039949950846 -0.68306917967 -0.20162699655 -0.057868065006 -0.62550482966 -0.18013602553
          -0.076148089451 -0.56897212198 -0.15933422618 -0.094046097301 -0.51232974353 -0.13835450269
          -0.11095128602 -0.4557043938 -0.11787812108 -0.12872508409 -0.39915223276 -0.096815978394
          -0.1464278773 -0.34283931267 -0.076060162694 -0.16443536745 -0.28577282872 -0.055587033849
          -0.061001669294 -0.84471861112 -0.17385588312 -0.078021375377 -0.7861966213 -0.1530191216
          -0.095912043668 -0.72877035106 -0.13177918499 -0.11431372935 -0.67199672036 -0.10999605667
          -0.13249121595 -0.61484325479 -0.088095088447 -0.14814610883 -0.55701314869 -0.068265369923
          -0.16614772684 -0.50096340755 -0.047647513823 -0.18403142822 -0.44441823437 -0.026914696626
          -0.20162434029 -0.38810873867 -0.0053617570705 -0.21826388188 -0.33143665617 0.016324880449
          -0.11672095593 -0.89037200182 -0.10433392918 -0.13492960569 -0.83270068986 -0.08319748735
          -0.15296737043 -0.7753533916 -0.061798025899 -0.17162012869 -0.71804573025 -0.040058719485
          -0.18932582494 -0.66058663066 -0.018805811221 -0.20440028961 -0.60361284483 0.0017198605132
          -0.22122029328 -0.54572622099 0.022782097908 -0.23882254545 -0.48940345159 0.043428184551
          -0.2567987008 -0.43318324793 0.064255158523 -0.27467524619 -0.37652961978 0.085131883256
          -0.17359400167 -0.93700020597 -0.035081222873 -0.19181297828 -0.87914323133 -0.01301573747
          -0.21002160664 -0.8216488209 0.0077797187645 -0.22881638932 -0.76421621826 0.030686188734
          -0.24789686577 -0.70619957542 0.050570600903 -0.25910649941 -0.64747833675 0.071342466974
          -0.27706737801 -0.59141639596 0.09325125241 -0.29477898749 -0.53489528558 0.11329204095
          -0.31196534741 -0.47827573156 0.13485057857 -0.32921686548 -0.42220251126 0.15534471087
          -0.23047856047 -0.98349237358 0.035089198942 -0.24942458776 -0.92637169484 0.056067663128
          -0.26837051189 -0.8685859073 0.076716151391 -0.28681947794 -0.81010408368 0.099549076913
          -0.30475991095 -0.75277073817 0.12160903349 -0.31472821356 -0.69313464134 0.14238079083
          -0.33217475361 -0.63583584666 0.16264356051 -0.34907024564 -0.57962516702 0.18290647323
          -0.36638970542 -0.52355388598 0.20471789152 -0.3856494432 -0.46741213813 0.22655654295
          -0.28729978129 -1.0322685858 0.10416100731 -0.30465411624 -0.97067287716 0.12976698104
          -0.32411160422 -0.9137852752 0.14749324493 -0.34404900624 -0.85604153 0.1680314118
          -0.36571586461 -0.79899959715 0.19204063707 -0.36950665992 -0.73674678699 0.21186320321
          -0.3879115488 -0.68070806281 0.23128402191 -0.40681760508 -0.62559220415 0.25294838282
          -0.42601712402 -0.5696822499 0.2766054944 -0.44114529116 -0.51302110136 0.29656566857
          0.24639041423 -0.68289688606 -0.55534910162 0.22740299132 -0.62611603845 -0.5321091175
          0.20729944596 -0.5702486302 -0.5098972141 0.18840541706 -0.51305410337 -0.48812005263
          0.17171983702 -0.45763164877 -0.46803209139 0.15297666766 -0.4006414933 -0.44628267425
          0.13334467625 -0.34348473485 -0.42553203722 0.1161954593 -0.28738355416 -0.4050085445
          0.098239971884 -0.23213639101 -0.38526014146 0.079723616716 -0.17997931617 -0.36926314609
          0.18981249921 -0.72952113684 -0.48315373277 0.17062347851 -0.67263099633 -0.46106412202
          0.15188013835 -0.61585925496 -0.43990514085 0.13342282416 -0.55875251961 -0.41886645887
          0.11502610847 -0.50214357783 -0.39769435118 0.097106235887 -0.4457687629 -0.37692436277
          0.078661957898 -0.38866010526 -0.35615537721 0.061272383307 -0.33252105704 -0.33538064031
          0.043007453927 -0.2767544037 -0.31516646681 0.02483820939 -0.22166155627 -0.29705072049
          0.13175322843 -0.77572204748 -0.41161343753 0.11335018179 -0.71860255445 -0.39086601714
          0.095209176283 -0.66124802445 -0.36903361534 0.07709430754 -0.60413989543 -0.34799154392
          0.059086634557 -0.54735153404 -0.32726863439 0.041042790988 -0.49083159814 -0.30626555705
          0.023302364591 -0.43421494189 -0.28544301631 0.0059707807683 -0.37786372808 -0.26442936001
          -0.011697726844 -0.32106519294 -0.24443964443 -0.029835176725 -0.26527512298 -0.22405201304
          0.076734096528 -0.82096317213 -0.34290484751 0.057970718492 -0.76426777894 -0.32084338699
          0.039323941591 -0.70709266478 -0.29922446912 0.0213115735 -0.64965901134 -0.27801235283
          0.0031446337653 -0.5927735937 -0.25686379765 -0.014815318709 -0.53619732566 -0.23612464906
          -0.032298647212 -0.47990535881 -0.21552654324 -0.049777236015 -0.42330913232 -0.19472607583
          -0.067100699772 -0.36681265475 -0.17408735083 -0.085087511873 -0.31059970471 -0.15414200544
          0.019604747127 -0.86767925548 -0.27135364269 0.001779481777 -0.80938700072 -0.25026765944
          -0.016266137038 -0.75210580003 -0.2290529582 -0.034584688337 -0.69517950255 -0.20774124605
          -0.05259005745 -0.63822720647 -0.18658790787 -0.070199232424 -0.58175808368 -0.16610371111
          -0.087713102847 -0.52509650378 -0.1454077148 -0.1057667866 -0.46867194475 -0.1245973806
          -0.12335833928 -0.41233874812 -0.10388201604 -0.14038506548 -0.35534170144 -0.081939664655
          -0.036284614453 -0.91344466673 -0.20238224715 -0.054782210655 -0.85585183978 -0.18065929241
          -0.073004119363 -0.79882061669 -0.15934335183 -0.090786267572 -0.74115121334 -0.13777117544
          -0.1094476164 -0.68395734243 -0.11681604967 -0.12519292513 -0.6267482306 -0.096283239541