<?xml version="1.0"?>
<VTKFile type="UnstructuredGrid" version="0.1" byte_order="LittleEndian" compressor="vtkZLibDataCompressor">
  <UnstructuredGrid>
    <FieldData>
      <DataArray type="Float64" Name="TIME" NumberOfTuples="1" format="ascii" RangeMin="0.29112181441" RangeMax="0.29112181441">
        0.29112181441
      </DataArray>
    </FieldData>
    <Piece NumberOfPoints="1000" NumberOfCells="0">
      <PointData>
        <DataArray type="Float64" Name="Damage" format="ascii" RangeMin="0" RangeMax="0.49719101124">
          0 0 0 0 0 0
          0 0 0 0 0 0.027932960894
          0 0 0 0 0 0
          0.027932960894 0 0 0.055084745763 0.071428571429 0.040345821326
          0.014164305949 0.012987012987 0.040345821326 0.071428571429 0.055084745763 0
          0 0.067669172932 0.11239193084 0.1074168798 0.037688442211 0.034562211982
          0.1074168798 0.11239193084 0.067669172932 0 0 0.074349442379
          0.16147308782 0.16834170854 0.12376237624 0.11286681716 0.16834170854 0.16147308782
          0.074349442379 0 0 0.084459459459 0.2 0.25806451613
          0.33860045147 0.39211618257 0.25806451613 0.2 0.084459459459 0
          0 0.093984962406 0.25360230548 0.36061381074 0.41959798995 0.46774193548
          0.36061381074 0.25360230548 0.093984962406 0 0 0.10593220339
          0.31493506494 0.40057636888 0.4447592068 0.49090909091 0.40057636888 0.31493506494
          0.10593220339 0 0 0.16759776536 0.3686440678 0.43984962406
          0.44609665428 0.49662162162 0.43984962406 0.3686440678 0.16759776536 0
          0 0.1677852349 0.36734693878 0.43891402715 0.44642857143 0.49593495935
          0.43891402715 0.36734693878 0.1677852349 0 0 0
          0 0 0 0 0 0
          0 0 0 0.027906976744 0 0
          0 0 0 0 0.027906976744 0
          0 0.056338028169 0.072776280323 0.040669856459 0.014117647059 0.012931034483
          0.040669856459 0.072776280323 0.056338028169 0 0 0.06875
          0.11483253589 0.10828025478 0.0375782881 0.034416826004 0.10828025478 0.11483253589
          0.06875 0 0 0.074303405573 0.16235294118 0.16910229645
          0.12371134021 0.11257035647 0.16910229645 0.16235294118 0.074303405573 0
          0 0.084269662921 0.20043103448 0.25812619503 0.33771106942 0.39242685026
          0.25812619503 0.20043103448 0.084269662921 0 0 0.09375
          0.25358851675 0.36093418259 0.41962421712 0.46845124283 0.36093418259 0.25358851675
          0.09375 0 0 0.10563380282 0.3153638814 0.4019138756
          0.44470588235 0.49137931034 0.4019138756 0.3153638814 0.10563380282 0
          0 0.16744186047 0.36971830986 0.440625 0.44582043344 0.49719101124
          0.440625 0.36971830986 0.16744186047 0 0 0.16759776536
          0.3686440678 0.43984962406 0.44609665428 0.49662162162 0.43984962406 0.3686440678
          0.16759776536 0 0 0 0 0
          0 0 0 0 0 0
          0 0.024647887324 0 0 0 0
          0 0 0.024647887324 0 0 0.051212938005
          0.06875 0.038817005545 0.012635379061 0.011666666667 0.038817005545 0.06875
          0.051212938005 0 0 0.064593301435 0.10905730129 0.10491803279
          0.036858974359 0.034023668639 0.10491803279 0.10905730129 0.064593301435 0
          0 0.070588235294 0.15523465704 0.16506410256 0.12283464567 0.11271676301
          0.16506410256 0.15523465704 0.070588235294 0 0 0.081896551724
          0.19333333333 0.25443786982 0.33959537572 0.38985313752 0.25443786982 0.19333333333
          0.081896551724 0 0 0.093301435407 0.24768946396 0.35573770492
          0.41987179487 0.46449704142 0.35573770492 0.24768946396 0.093301435407 0
          0 0.10781671159 0.30833333333 0.39556377079 0.4440433213 0.48666666667
          0.39556377079 0.30833333333 0.10781671159 0 0 0.16197183099
          0.35579514825 0.43062200957 0.44470588235 0.49137931034 0.43062200957 0.35579514825
          0.16197183099 0 0 0.16101694915 0.3538961039 0.42939481268
          0.4447592068 0.49090909091 0.42939481268 0.3538961039 0.16101694915 0
          0 0 0 0 0 0
          0 0 0 0 0 0.025
          0 0 0 0 0 0
          0.025 0 0 0.05023923445 0.068391866913 0.039344262295
          0.012820512821 0.011834319527 0.039344262295 0.068391866913 0.05023923445 0
          0 0.063694267516 0.10819672131 0.10465116279 0.036984352774 0.034120734908
          0.10465116279 0.10819672131 0.063694267516 0 0 0.070981210856
          0.15544871795 0.16500711238 0.12290502793 0.11282051282 0.16500711238 0.15544871795
          0.070981210856 0 0 0.082217973231 0.19378698225 0.25459317585
          0.33974358974 0.38981042654 0.25459317585 0.19378698225 0.082217973231 0
          0 0.093418259023 0.24918032787 0.35610465116 0.41963015647 0.46456692913
          0.35610465116 0.24918032787 0.093418259023 0 0 0.10765550239
          0.30868761553 0.39508196721 0.44391025641 0.48668639053 0.39508196721 0.30868761553
          0.10765550239 0 0 0.1625 0.35645933014 0.43099787686
          0.44467640919 0.4913957935 0.43099787686 0.35645933014 0.1625 0
          0 0.16165413534 0.35446685879 0.42966751918 0.44472361809 0.49078341014
          0.42966751918 0.35446685879 0.16165413534 0 0 0
          0 0 0 0 0 0
          0 0 0 0.02786377709 0 0
          0 0 0 0 0.02786377709 0
          0 0.054117647059 0.070397111913 0.040064102564 0.014173228346 0.013005780347
          0.040064102564 0.070397111913 0.054117647059 0 0 0.066805845511
          0.11057692308 0.106685633 0.037709497207 0.034615384615 0.106685633 0.11057692308
          0.066805845511 0 0 0.074226804124 0.16062992126 0.16759776536
          0.12362637363 0.11292346299 0.16759776536 0.16062992126 0.074226804124 0
          0 0.084427767355 0.19942196532 0.25769230769 0.33877038896 0.39145496536
          0.25769230769 0.19942196532 0.084427767355 0 0 0.093945720251
          0.25320512821 0.35988620199 0.41899441341 0.46666666667 0.35988620199 0.25320512821
          0.093945720251 0 0 0.10588235294 0.31407942238 0.39903846154
          0.44409448819 0.48988439306 0.39903846154 0.31407942238 0.10588235294 0
          0 0.16718266254 0.36705882353 0.43841336117 0.44536082474 0.49530956848
          0.43841336117 0.36705882353 0.16718266254 0 0 0.16728624535
          0.36543909348 0.43718592965 0.44554455446 0.49435665914 0.43718592965 0.36543909348
          0.16728624535 0 0 0 0 0
          0 0 0 0 0 0
          0 0.025280898876 0 0 0 0
          0 0 0.025280898876 0 0 0.049568965517
          0.066666666667 0.038461538462 0.013005780347 0.012016021362 0.038461538462 0.066666666667
          0.049568965517 0 0 0.06309751434 0.1050295858 0.10367454068
          0.037179487179 0.034360189573 0.10367454068 0.1050295858 0.06309751434 0
          0 0.071294559099 0.15462427746 0.1641025641 0.12296110414 0.11316397229
          0.1641025641 0.15462427746 0.071294559099 0 0 0.082616179002
          0.19359145527 0.25473933649 0.34064665127 0.38930481283 0.25473933649 0.19359145527
          0.082616179002 0 0 0.093690248566 0.24852071006 0.35564304462
          0.41923076923 0.46327014218 0.35564304462 0.24852071006 0.093690248566 0
          0 0.10775862069 0.30833333333 0.39349112426 0.4436416185 0.48598130841
          0.39349112426 0.30833333333 0.10775862069 0 0 0.16292134831
          0.35560344828 0.43021032505 0.44465290807 0.49053356282 0.43021032505 0.35560344828
          0.16292134831 0 0 0.16216216216 0.35324675325 0.42857142857
          0.44469525959 0.48962655602 0.42857142857 0.35324675325 0.16216216216 0
          0 0 0 0 0 0
          0 0 0 0 0 0.025
          0 0 0 0 0 0
          0.025 0 0 0.05023923445 0.068391866913 0.039344262295
          0.012820512821 0.011834319527 0.039344262295 0.068391866913 0.05023923445 0
          0 0.063694267516 0.10819672131 0.10465116279 0.036984352774 0.034120734908
          0.10465116279 0.10819672131 0.063694267516 0 0 0.070981210856
          0.15544871795 0.16500711238 0.12290502793 0.11282051282 0.16500711238 0.15544871795
          0.070981210856 0 0 0.082217973231 0.19378698225 0.25459317585
          0.33974358974 0.38981042654 0.25459317585 0.19378698225 0.082217973231 0
          0 0.093418259023 0.24918032787 0.35610465116 0.41963015647 0.46456692913
          0.35610465116 0.24918032787 0.093418259023 0 0 0.10765550239
          0.30868761553 0.39508196721 0.44391025641 0.48668639053 0.39508196721 0.30868761553
          0.10765550239 0 0 0.1625 0.35645933014 0.43099787686
          0.44467640919 0.4913957935 0.43099787686 0.35645933014 0.1625 0
          0 0.16165413534 0.35446685879 0.42966751918 0.44472361809 0.49078341014
          0.42966751918 0.35446685879 0.16165413534 0 0 0
          0 0 0 0 0 0
          0 0 0 0.024647887324 0 0
          0 0 0 0 0.024647887324 0
          0 0.051212938005 0.06875 0.038817005545 0.012635379061 0.011666666667
          0.038817005545 0.06875 0.051212938005 0 0 0.064593301435
          0.10905730129 0.10491803279 0.036858974359 0.034023668639 0.10491803279 0.10905730129
          0.064593301435 0 0 0.070588235294 0.15523465704 0.16506410256
          0.12283464567 0.11271676301 0.16506410256 0.15523465704 0.070588235294 0
          0 0.081896551724 0.19333333333 0.25443786982 0.33959537572 0.38985313752
          0.25443786982 0.19333333333 0.081896551724 0 0 0.093301435407
          0.24768946396 0.35573770492 0.41987179487 0.46449704142 0.35573770492 0.24768946396
          0.093301435407 0 0 0.10781671159 0.30833333333 0.39556377079
          0.4440433213 0.48666666667 0.39556377079 0.30833333333 0.10781671159 0
          0 0.16197183099 0.35579514825 0.43062200957 0.44470588235 0.49137931034
          0.43062200957 0.35579514825 0.16197183099 0 0 0.16101694915
          0.3538961039 0.42939481268 0.4447592068 0.49090909091 0.42939481268 0.3538961039
          0.16101694915 0 0 0 0 0
          0 0 0 0 0 0
          0 0.027906976744 0 0 0 0
          0 0 0.027906976744 0 0 0.056338028169
          0.072776280323 0.040669856459 0.014117647059 0.012931034483 0.040669856459 0.072776280323
          0.056338028169 0 0 0.06875 0.11483253589 0.10828025478
          0.0375782881 0.034416826004 0.10828025478 0.11483253589 0.06875 0
          0 0.074303405573 0.16235294118 0.16910229645 0.12371134021 0.11257035647
          0.16910229645 0.16235294118 0.074303405573 0 0 0.084269662921
          0.20043103448 0.25812619503 0.33771106942 0.39242685026 0.25812619503 0.20043103448
          0.084269662921 0 0 0.09375 0.25358851675 0.36093418259
          0.41962421712 0.46845124283 0.36093418259 0.25358851675 0.09375 0
          0 0.10563380282 0.3153638814 0.4019138756 0.44470588235 0.49137931034
          0.4019138756 0.3153638814 0.10563380282 0 0 0.16744186047
          0.36971830986 0.440625 0.44582043344 0.49719101124 0.440625 0.36971830986
          0.16744186047 0 0 0.16759776536 0.3686440678 0.43984962406
          0.44609665428 0.49662162162 0.43984962406 0.3686440678 0.16759776536 0
          0 0 0 0 0 0
          0 0 0 0 0 0.027932960894
          0 0 0 0 0 0
          0.027932960894 0 0 0.055084745763 0.071428571429 0.040345821326
          0.014164305949 0.012987012987 0.040345821326 0.071428571429 0.055084745763 0
          0 0.067669172932 0.11239193084 0.1074168798 0.037688442211 0.034562211982
          0.1074168798 0.11239193084 0.067669172932 0 0 0.074349442379
          0.16147308782 0.16834170854 0.12376237624 0.11286681716 0.16834170854 0.16147308782
          0.074349442379 0 0 0.084459459459 0.2 0.25806451613
          0.33860045147 0.39211618257 0.25806451613 0.2 0.084459459459 0
          0 0.093984962406 0.25360230548 0.36061381074 0.41959798995 0.46774193548
          0.36061381074 0.25360230548 0.093984962406 0 0 0.10593220339
          0.31493506494 0.40057636888 0.4447592068 0.49090909091 0.40057636888 0.31493506494
          0.10593220339 0 0 0.16759776536 0.3686440678 0.43984962406
          0.44609665428 0.49662162162 0.43984962406 0.3686440678 0.16759776536 0
          0 0.1677852349 0.36734693878 0.43891402715 0.44642857143 0.49593495935
          0.43891402715 0.36734693878 0.1677852349 0
        </DataArray>
        <DataArray type="Float64" Name="Displacement" NumberOfComponents="3" format="ascii" RangeMin="1.1987491104" RangeMax="1.223730838">
          -0.0060134308763 1.2027464087 -0.022444214658 -0.0093615426596 1.2066240337 -0.021363210732
          -0.0091357575645 1.2105570784 -0.025957290378 -0.0097910217498 1.2088135311 -0.025057040142
          -0.0093801912803 1.2074803722 -0.024210556023 -0.0094607888092 1.2063856158 -0.024223139838
          -0.009126596215 1.2073837835 -0.024922657897 -0.0097769626307 1.2082466007 -0.025899718958
          -0.0095630016388 1.2031794177 -0.021304869232 -0.013302573786 1.1984685298 -0.022263293177
          -0.0098633271718 1.2086377327 -0.023221763079 -0.0083230652463 1.207536306 -0.023658694861
          -0.0090975208016 1.207406146 -0.023687968805 -0.0087778152306 1.2070703099 -0.023729355454
          -0.0088180225675 1.2068169352 -0.02387513105 -0.0090066450733 1.2061175433 -0.023878148944
          -0.0092069329297 1.2053840605 -0.023614218004 -0.0088767734322 1.2050000193 -0.023654688025
          -0.0096414541368 1.2043379837 -0.023621454232 -0.0080855393498 1.2044704983 -0.023037114175
          -0.0095231143676 1.2095210769 -0.02395312664 -0.0080498938399 1.2084628859 -0.025057449815
          -0.0089658430384 1.2082727705 -0.024832769032 -0.0085265383362 1.2074834643 -0.024770323893
          -0.0086419222321 1.2064169842 -0.02430351482 -0.0084885365447 1.2066783351 -0.024727338512
          -0.0084871788003 1.2059773211 -0.024735895379 -0.0080327308899 1.2059295296 -0.024752311909
          -0.0089956297997 1.2051362431 -0.024963159047 -0.0076354306676 1.2052180773 -0.024025696503
          -0.0093874266138 1.209963048 -0.024519240852 -0.0078178651318 1.2083811984 -0.026906354681
          -0.0077626540513 1.2082871759 -0.025703701858 -0.0077240468355 1.2074440803 -0.025577915817
          -0.0081283105033 1.2074428929 -0.02588877896 -0.008442433704 1.207019252 -0.025805227956
          -0.0081911314933 1.2059229281 -0.025440476896 -0.0083568348534 1.2058691712 -0.025618136496
          -0.0081039758426 1.2051120416 -0.026787352409 -0.0067450833309 1.2056677614 -0.02452400438
          -0.009166088452 1.2085408654 -0.024519888542 -0.0072948411181 1.208724993 -0.02653972304
          -0.0078278145892 1.2082011594 -0.026071394758 -0.0072861543063 1.2075951973 -0.026362310421
          -0.0070136970641 1.207491144 -0.02616190569 -0.0078387822797 1.2071346193 -0.026312182114
          -0.0078230749199 1.2061109012 -0.026284779158 -0.007272184446 1.2058108286 -0.025976368891
          -0.0076996588765 1.2052276368 -0.026386622925 -0.0060825924293 1.2043274236 -0.024568431581
          -0.0081562781417 1.2072961222 -0.025853261026 -0.0078510830937 1.2083923517 -0.027199351742
          -0.0063801760839 1.208639806 -0.0268237671 -0.0066331131024 1.2079560151 -0.026386499076
          -0.0086328029984 1.2068291411 -0.028708599307 -0.0052231017437 1.2064950057 -0.028701667673
          -0.0075096048772 1.2067238204 -0.026395205782 -0.0077449642912 1.206212362 -0.026798408536
          -0.006178038112 1.2050909838 -0.027096867771 -0.0060938870054 1.2029991313 -0.025857486419
          -0.0070549952219 1.2081106376 -0.027401970631 -0.0062467254474 1.2088704557 -0.028206782933
          -0.0062065630129 1.2081758753 -0.027223088274 -0.0055898283324 1.2085370564 -0.027012962507
          -0.0047130444384 1.2063616186 -0.02649638869 -0.0085997729176 1.205961819 -0.026484831778
          -0.0076226212664 1.2070050138 -0.026972648212 -0.0069839959553 1.2057936202 -0.027221936423
          -0.0069591580897 1.2055387791 -0.028163692179 -0.0063054530832 1.2038530701 -0.027456489235
          -0.0050664057656 1.210211724 -0.028320674465 -0.006921659405 1.2075573157 -0.028508804293
          -0.0076283333842 1.2070145354 -0.028744098197 -0.0074863082862 1.207477369 -0.028507649736
          -0.0051764360173 1.208009257 -0.02660302522 -0.0070819440614 1.2075304196 -0.026615173923
          -0.0048313257531 1.2060663483 -0.028477949068 -0.0045652624044 1.2046223024 -0.028696390688
          -0.005362667597 1.2042585928 -0.02847637617 -0.0070973873032 1.2059053518 -0.028157925187
          -0.008193267444 1.2101068219 -0.028604742529 -0.0095552976996 1.2099109502 -0.02728174248
          -0.010323400151 1.2062567586 -0.030379230274 -0.0053295927105 1.2069579487 -0.03052073083
          -0.0078570877383 1.2076911026 -0.028245949681 -0.0032921606644 1.2072698907 -0.028551964718
          -0.0060826184143 1.2055410433 -0.030440641271 -0.0010190091942 1.2038521373 -0.030309503696
          -0.0016838391682 1.2066064734 -0.027142642035 -0.0027736488766 1.2058675657 -0.028164531963
          -0.0022549636718 1.217006731 -0.027320780914 -0.0044770434222 1.210344676 -0.028637831004
          -0.0068377199659 1.2109719619 -0.028245102089 -0.0086501516697 1.2117115888 -0.026630213291
          -0.010846345891 1.2062612168 -0.036016525588 0.00078782218794 1.2060015544 -0.035935412464
          -0.0015475664288 1.2103723496 -0.026497908275 -0.0034449765183 1.2085615146 -0.02822608915
          -0.0058927521884 1.2069964643 -0.02860996102 -0.0079524990961 1.2126144101 -0.027341087477
          -0.010085322559 1.2101143864 -0.023225418872 -0.0095351489665 1.2092460947 -0.023401271395
          -0.009114240578 1.2077359225 -0.022882214706 -0.0094778939969 1.207653524 -0.022999252315
          -0.0092249194788 1.2073431737 -0.022798322034 -0.0094963637744 1.2065740707 -0.022784687088
          -0.0095484951544 1.2060420482 -0.022841591019 -0.0098574356442 1.2053265982 -0.022765259526
          -0.0093954779224 1.2059546366 -0.023329967806 -0.008936503239 1.205852277 -0.023170851883
          -0.0096643397846 1.2115752204 -0.025032702479 -0.0089510218798 1.2091509199 -0.024264069251
          -0.00930387341 1.2086057861 -0.023967405407 -0.0092042590297 1.2083812722 -0.024132021368
          -0.0088984493776 1.2080158189 -0.024685271677 -0.0089522700018 1.2073725154 -0.02450333828
          -0.0087646371525 1.2069285766 -0.024072531 -0.0087238506782 1.2062158489 -0.023923730097
          -0.0090698500045 1.2058416758 -0.024175260786 -0.0082814574108 1.2073853395 -0.025039104982
          -0.0066723689519 1.2096115055 -0.026721613699 -0.0083712679412 1.2091075867 -0.024849370055
          -0.0085486164137 1.2083716285 -0.024429092659 -0.0083717163963 1.2081496254 -0.024980085929
          -0.0084557943476 1.2078933422 -0.025051074025 -0.0085182232837 1.2073938392 -0.025072122666
          -0.0086064535388 1.2067538202 -0.0249574001 -0.0085094237906 1.2059975094 -0.024393708464
          -0.0086623597804 1.2057904483 -0.024786772644 -0.010322435296 1.2053767852 -0.02661099194
          -0.0073866310443 1.2092655081 -0.025793459338 -0.0078789435151 1.2088828529 -0.025509130631
          -0.007809933644 1.2086716133 -0.025780603252 -0.0082398255776 1.2077556768 -0.024893350185
          -0.0080166259848 1.2077355828 -0.025507436285 -0.0080277651144 1.2072446233 -0.025507131914
          -0.0078585626695 1.206331788 -0.024788487026 -0.0081967687063 1.2062781678 -0.025687114262
          -0.0081996333007 1.2054894686 -0.025444181348 -0.0086361396386 1.2048875457 -0.025698468918
          -0.0072044682331 1.2082713971 -0.026171822533 -0.0071864331542 1.2089014137 -0.026302013588
          -0.0070135502372 1.2087905316 -0.02637498451 -0.0072976858443 1.2081548351 -0.026483896953
          -0.0076411372034 1.2075078437 -0.026317621906 -0.0075111335717 1.2071095389 -0.026076694795
          -0.0077421765376 1.2066700051 -0.026412659671 -0.0080784110263 1.2064365154 -0.026285670842
          -0.0079519423273 1.2055524209 -0.026177837991 -0.0079226426376 1.2039108928 -0.026090973472
          -0.0075787803741 1.2095747619 -0.026138857202 -0.0070538077922 1.2087674153 -0.027129389381
          -0.0067711879345 1.2086455308 -0.027038812271 -0.0062558768362 1.2084608148 -0.026623341761
          -0.0069229464847 1.2077384474 -0.026633569287 -0.0072539285516 1.2072604233 -0.02664602857
          -0.0079183378818 1.2070474771 -0.026624048082 -0.0074213696369 1.2062975448 -0.026947339953
          -0.0070942100393 1.2054374392 -0.026978920649 -0.0065588750955 1.2052211209 -0.02607758625
          -0.0067358466336 1.2088398227 -0.02746440115 -0.0069155550593 1.2086939244 -0.027633301723
          -0.0073382525269 1.208451292 -0.027617423902 -0.0072829820152 1.2081679163 -0.027884694107
          -0.005907286133 1.2081111936 -0.026483880797 -0.0072245152122 1.2077654478 -0.026426216519
          -0.0058859038305 1.2067417435 -0.02782527191 -0.005880665131 1.2060636254 -0.027551646185
          -0.0062686005003 1.205307569 -0.02752884531 -0.0064070577056 1.2045584406 -0.027373888306
          -0.0081754246476 1.2087277888 -0.025510913326 -0.0068425790559 1.208329218 -0.028366643436
          -0.0070515653382 1.2088605521 -0.027235874302 -0.0065214992968 1.208653243 -0.027993841767
          -0.0065659383101 1.2079060304 -0.028072742491 -0.0056589857471 1.2074194505 -0.028160157707
          -0.0057166965781 1.2072372315 -0.0280438638 -0.005240253391 1.2064750005 -0.027222912477
          -0.0053344254746 1.2049736534 -0.028293957632 -0.0040457309282 1.2044505428 -0.025466329452
          -0.0043341593155 1.2095980439 -0.029996866315 -0.00730288159 1.2083076368 -0.028573663387
          -0.0067673907186 1.2075951846 -0.029721464654 -0.0063271609129 1.2083359194 -0.028713219605
          -0.0062455634399 1.2086991574 -0.027923687446 -0.0050711859843 1.2082311454 -0.027929199975
          -0.0049250236502 1.2069332692 -0.028723839927 -0.0045419880984 1.2052001326 -0.029692589578
          -0.0039834821707 1.2049024561 -0.028572660825 -0.0071311416209 1.2054589495 -0.029990428047
          -0.0083997598656 1.2055855839 -0.028708779461 -0.0037933465021 1.2087789565 -0.030460982513
          -0.0069657466839 1.20784272 -0.029279546152 -0.0036146546056 1.2070908523 -0.028820333175
          -0.0093438139359 1.2092779811 -0.033081523097 -0.0010203055226 1.2086201224 -0.033317839776
          -0.0068228595744 1.2056713412 -0.02890102129 -0.0033787411795 1.205579772 -0.029335664634
          -0.0066440711914 1.2055447114 -0.030620734926 -0.0019588580423 1.2013960823 -0.02867484435
          -0.0079392068316 1.2090734338 -0.024282227428 -0.010065425686 1.2097217465 -0.023467471606
          -0.0096841035266 1.2090344689 -0.023317435371 -0.0093649382018 1.2083532298 -0.023154787745
          -0.0094158210212 1.2088671728 -0.023955759834 -0.0095748763693 1.2079727553 -0.023732085137
          -0.0095738856695 1.2069681907 -0.023172608114 -0.0092936614875 1.2066164958 -0.023278830084
          -0.0089674569021 1.206417254 -0.023390618048 -0.011136884085 1.2046807894 -0.024186316736
          -0.0098503508936 1.2106597233 -0.02369011082 -0.0088821661562 1.2091896891 -0.023883788058
          -0.0085617017377 1.2084915541 -0.023914727478 -0.0088763726723 1.2089132399 -0.024374322574
          -0.0089410673811 1.2084272509 -0.024319733589 -0.0090300689285 1.2080673029 -0.02438585912
          -0.0091514814649 1.2074773028 -0.024358058807 -0.0094080573594 1.2061445662 -0.023883523171
          -0.0091391226423 1.2058429288 -0.023824977334 -0.0081388213508 1.206350743 -0.023596199524
          -0.0082331132836 1.2100105119 -0.025328169523 -0.0081457987572 1.2094315812 -0.025000030518
          -0.0084753361895 1.2091663789 -0.02476198769 -0.0084994773463 1.2085657465 -0.024777506895
          -0.0084865535289 1.2081951974 -0.024810946456 -0.0086240066055 1.2078097451 -0.024748912185
          -0.0085091516337 1.2071482748 -0.024771647398 -0.0085526206 1.206757847 -0.024654385589
          -0.0089200303175 1.2060532917 -0.024940556087 -0.0088182170701 1.2056972406 -0.02524433565
          -0.0076972421609 1.2101349904 -0.026099117373 -0.0077652641548 1.2095080536 -0.025651250189
          -0.0080537166597 1.2090812236 -0.025448204011 -0.0080174837466 1.2086495801 -0.025432758223
          -0.0079916300394 1.2082496076 -0.025450937149 -0.0080781824761 1.2078669682 -0.025451875178
          -0.0080507034517 1.2072375628 -0.025405969466 -0.0080012847266 1.2066977471 -0.025354475886
          -0.0082259778961 1.2061758453 -0.025545311579 -0.0083979631357 1.205797791 -0.026010816304
          -0.0072936810565 1.210128871 -0.026504007018 -0.0075347645672 1.2094376975 -0.026214382899
          -0.0073621448343 1.2091431047 -0.026268150989 -0.0075224388605 1.2087235879 -0.02613853376
          -0.0075176439348 1.2083536967 -0.026079611465 -0.0075260074544 1.2078542413 -0.026056594466
          -0.00757744312 1.2073586073 -0.026122372533 -0.0077473146849 1.206788512 -0.026222044332
          -0.0075855340571 1.2060884146 -0.026155685199 -0.0078133252199 1.2058288891 -0.026452249992
          -0.0069941257219 1.2101576055 -0.026876709951 -0.0067814884082 1.2095372358 -0.027030183534
          -0.0071452112051 1.2091977861 -0.026861902223 -0.0072191764666 1.208644213 -0.026818266399
          -0.0069763243278 1.2084341748 -0.026650880741 -0.0073108361645 1.2080029263 -0.026554123825
          -0.0069974657953 1.2072214019 -0.026771783548 -0.007003515853 1.2067869493 -0.02678763343
          -0.0074321885046 1.2061937856 -0.026980432494 -0.0072053603472 1.2059148557 -0.026802992387
          -0.0062591415759 1.2097963358 -0.027901053005 -0.0061862035109 1.2095419592 -0.02779283318
          -0.0063767568364 1.2092930406 -0.02758097403 -0.0065762746074 1.2087942099 -0.027643012487
          -0.0074663497202 1.208582006 -0.027866348913 -0.0057182022226 1.208157634 -0.027881654827
          -0.0066666689219 1.2074000004 -0.02756570234 -0.0068466648058 1.2069186016 -0.02754802978
          -0.0069712659486 1.206190585 -0.027728563965 -0.0069810164382 1.2055201502 -0.027865008627
          -0.0070855794379 1.2091020968 -0.027555025468 -0.0061500435132 1.2097890434 -0.027877834993
          -0.0065576757246 1.2092255838 -0.028112315821 -0.0057089430685 1.2085598952 -0.028256941458
          -0.0060264684415 1.2085809676 -0.027567999255 -0.0062727286046 1.208106392 -0.027589486073
          -0.0065533936573 1.2072018112 -0.028207041574 -0.0056427935933 1.206821655 -0.028081752777
          -0.0061028616259 1.2064304792 -0.027839629454 -0.0052066048363 1.2048108098 -0.027503753414
          -0.0055070438527 1.2104992845 -0.02798234228 -0.0074426423465 1.2090381736 -0.028213292476
          -0.0058265885587 1.2092152914 -0.028642662637 -0.0057272562945 1.2087646934 -0.02845098427
          -0.0067445051671 1.208962256 -0.028890146791 -0.0044187467865 1.2085617576 -0.028859208152
          -0.005528211235 1.2073461787 -0.02845955943 -0.0053904698937 1.2068476389 -0.028625214058
          -0.0038469671409 1.2057632889 -0.02816446814 -0.0058249864995 1.2063091983 -0.027961423159
          -0.0061454473944 1.2101309644 -0.028671458305 -0.004714737928 1.2108179325 -0.029662472646
          -0.0062105824804 1.2097724954 -0.028302108153 -0.010582282107 1.2112722789 -0.029735035887
          -0.0091127374 1.2105427807 -0.028411242632 -0.001242866721 1.2100274578 -0.028402721362
          0.00027413642429 1.2098156493 -0.029715195412 -0.0041614393407 1.2073725388 -0.028365278107
          -0.0056759561558 1.2075031113 -0.029668861499 -0.0043640958495 1.2059721461 -0.028572260337
          -0.0095241494553 1.2112797505 -0.024061145846 -0.0093800802052 1.209927317 -0.023982012908
          -0.0092827178004 1.2099441812 -0.023956068494 -0.0091453015958 1.2090310031 -0.023212401658
          -0.0093784815717 1.2089641941 -0.023433151148 -0.0094273483651 1.2083939513 -0.023474700488
          -0.0098169136655 1.2075115998 -0.02312262786 -0.0096319243489 1.2075627537 -0.023954931347
          -0.0096568091686 1.2065790294 -0.023924342255 -0.0094038734656 1.2070055469 -0.023968474161
          -0.0086069695019 1.2103492759 -0.024984518281 -0.009275792778 1.2103096534 -0.024088054888
          -0.0090723349241 1.2099701692 -0.024160362801 -0.008966052386 1.2093162904 -0.024185622379
          -0.0089725566622 1.2088987302 -0.024180087362 -0.0090274543189 1.2084232116 -0.0241876068
          -0.0090706325869 1.2078631909 -0.024137161013 -0.0089480180049 1.2075995894 -0.024140817875
          -0.0086923840232 1.2070302458 -0.024006867247 -0.0094135966207 1.2059833551 -0.024943611466
          -0.008453783775 1.2107185991 -0.024939018024 -0.0086286563981 1.2101197304 -0.024802064082
          -0.0085075427083 1.2097019836 -0.024880036728 -0.0084194337692 1.2093326014 -0.024832683897
          -0.0084857921678 1.2089344784 -0.0248327145 -0.0085328774759 1.2084636495 -0.024757863892
          -0.0085963996614 1.2078963809 -0.024780357183 -0.0085398921681 1.2073472502 -0.024835265653
          -0.0084393485654 1.2067877237 -0.024730414938 -0.0086241125668 1.2063942477 -0.02486206711
          -0.0080283691627 1.2107000168 -0.025846575738 -0.0080170553627 1.2101396196 -0.025514377722
          -0.0080120353689 1.2097700908 -0.025445109825 -0.0079333372525 1.2093031206 -0.025618283516
          -0.0080249640751 1.2089322136 -0.025437124559 -0.0080669167453 1.2085491252 -0.025481805849
          -0.0081621928585 1.2078486566 -0.025542478139 -0.0080564454097 1.2073899609 -0.025387767279
          -0.0080494662194 1.2068085039 -0.025423484104 -0.0080102839662 1.2064586855 -0.025701998392
          -0.0075964406096 1.2104347741 -0.026190225892 -0.0075179995967 1.2101280638 -0.026180454051
          -0.0074637640189 1.209761031 -0.026127853744 -0.007530588653 1.2092868775 -0.026035422623
          -0.0075723783745 1.2089518362 -0.026142620947 -0.0075481989186 1.2084062671 -0.026026487788
          -0.0076018878566 1.2078959816 -0.026056572468 -0.0076648350554 1.2073890885 -0.026106990581
          -0.0076119511635 1.206768175 -0.026109424395 -0.0075372808361 1.2061648409 -0.026097759533