<?xml version="1.0"?>
<VTKFile type="UnstructuredGrid" version="0.1" byte_order="LittleEndian" compressor="vtkZLibDataCompressor">
  <UnstructuredGrid>
    <FieldData>
      <DataArray type="Float64" Name="TIME" NumberOfTuples="1" format="ascii" RangeMin="0.58648261157" RangeMax="0.58648261157">
        0.58648261157
      </DataArray>
    </FieldData>
    <Piece NumberOfPoints="1000" NumberOfCells="0">
      <PointData>
        <DataArray type="Float64" Name="Damage" format="ascii" RangeMin="0" RangeMax="0.49719101124">
          0 0 0 0 0 0
          0 0 0 0 0 0.027932960894
          0 0 0 0 0 0
          0.027932960894 0 0 0.055084745763 0.071428571429 0.040345821326
          0.014164305949 0.012987012987 0.040345821326 0.071428571429 0.055084745763 0
          0 0.067669172932 0.11239193084 0.1074168798 0.037688442211 0.034562211982
          0.1074168798 0.11239193084 0.067669172932 0 0 0.074349442379
          0.16147308782 0.16834170854 0.12376237624 0.11286681716 0.16834170854 0.16147308782
          0.074349442379 0 0 0.084459459459 0.2 0.25806451613
          0.33860045147 0.39211618257 0.25806451613 0.2 0.084459459459 0
          0 0.093984962406 0.25360230548 0.36061381074 0.41959798995 0.46774193548
          0.36061381074 0.25360230548 0.093984962406 0 0 0.10593220339
          0.31493506494 0.40057636888 0.4447592068 0.49090909091 0.40057636888 0.31493506494
          0.10593220339 0 0 0.16759776536 0.3686440678 0.43984962406
          0.44609665428 0.49662162162 0.43984962406 0.3686440678 0.16759776536 0
          0 0.1677852349 0.36734693878 0.43891402715 0.44642857143 0.49593495935
          0.43891402715 0.36734693878 0.1677852349 0 0 0
          0 0 0 0 0 0
          0 0 0 0.027906976744 0 0
          0 0 0 0 0.027906976744 0
          0 0.056338028169 0.072776280323 0.040669856459 0.014117647059 0.012931034483
          0.040669856459 0.072776280323 0.056338028169 0 0 0.06875
          0.11483253589 0.10828025478 0.0375782881 0.034416826004 0.10828025478 0.11483253589
          0.06875 0 0 0.074303405573 0.16235294118 0.16910229645
          0.12371134021 0.11257035647 0.16910229645 0.16235294118 0.074303405573 0
          0 0.084269662921 0.20043103448 0.25812619503 0.33771106942 0.39242685026
          0.25812619503 0.20043103448 0.084269662921 0 0 0.09375
          0.25358851675 0.36093418259 0.41962421712 0.46845124283 0.36093418259 0.25358851675
          0.09375 0 0 0.10563380282 0.3153638814 0.4019138756
          0.44470588235 0.49137931034 0.4019138756 0.3153638814 0.10563380282 0
          0 0.16744186047 0.36971830986 0.440625 0.44582043344 0.49719101124
          0.440625 0.36971830986 0.16744186047 0 0 0.16759776536
          0.3686440678 0.43984962406 0.44609665428 0.49662162162 0.43984962406 0.3686440678
          0.16759776536 0 0 0 0 0
          0 0 0 0 0 0
          0 0.024647887324 0 0 0 0
          0 0 0.024647887324 0 0 0.051212938005
          0.06875 0.038817005545 0.012635379061 0.011666666667 0.038817005545 0.06875
          0.051212938005 0 0 0.064593301435 0.10905730129 0.10491803279
          0.036858974359 0.034023668639 0.10491803279 0.10905730129 0.064593301435 0
          0 0.070588235294 0.15523465704 0.16506410256 0.12283464567 0.11271676301
          0.16506410256 0.15523465704 0.070588235294 0 0 0.081896551724
          0.19333333333 0.25443786982 0.33959537572 0.38985313752 0.25443786982 0.19333333333
          0.081896551724 0 0 0.093301435407 0.24768946396 0.35573770492
          0.41987179487 0.46449704142 0.35573770492 0.24768946396 0.093301435407 0
          0 0.10781671159 0.30833333333 0.39556377079 0.4440433213 0.48666666667
          0.39556377079 0.30833333333 0.10781671159 0 0 0.16197183099
          0.35579514825 0.43062200957 0.44470588235 0.49137931034 0.43062200957 0.35579514825
          0.16197183099 0 0 0.16101694915 0.3538961039 0.42939481268
          0.4447592068 0.49090909091 0.42939481268 0.3538961039 0.16101694915 0
          0 0 0 0 0 0
          0 0 0 0 0 0.025
          0 0 0 0 0 0
          0.025 0 0 0.05023923445 0.068391866913 0.039344262295
          0.012820512821 0.011834319527 0.039344262295 0.068391866913 0.05023923445 0
          0 0.063694267516 0.10819672131 0.10465116279 0.036984352774 0.034120734908
          0.10465116279 0.10819672131 0.063694267516 0 0 0.070981210856
          0.15544871795 0.16500711238 0.12290502793 0.11282051282 0.16500711238 0.15544871795
          0.070981210856 0 0 0.082217973231 0.19378698225 0.25459317585
          0.33974358974 0.38981042654 0.25459317585 0.19378698225 0.082217973231 0
          0 0.093418259023 0.24918032787 0.35610465116 0.41963015647 0.46456692913
          0.35610465116 0.24918032787 0.093418259023 0 0 0.10765550239
          0.30868761553 0.39508196721 0.44391025641 0.48668639053 0.39508196721 0.30868761553
          0.10765550239 0 0 0.1625 0.35645933014 0.43099787686
          0.44467640919 0.4913957935 0.43099787686 0.35645933014 0.1625 0
          0 0.16165413534 0.35446685879 0.42966751918 0.44472361809 0.49078341014
          0.42966751918 0.35446685879 0.16165413534 0 0 0
          0 0 0 0 0 0
          0 0 0 0.02786377709 0 0
          0 0 0 0 0.02786377709 0
          0 0.054117647059 0.070397111913 0.040064102564 0.014173228346 0.013005780347
          0.040064102564 0.070397111913 0.054117647059 0 0 0.066805845511
          0.11057692308 0.106685633 0.037709497207 0.034615384615 0.106685633 0.11057692308
          0.066805845511 0 0 0.074226804124 0.16062992126 0.16759776536
          0.12362637363 0.11292346299 0.16759776536 0.16062992126 0.074226804124 0
          0 0.084427767355 0.19942196532 0.25769230769 0.33877038896 0.39145496536
          0.25769230769 0.19942196532 0.084427767355 0 0 0.093945720251
          0.25320512821 0.35988620199 0.41899441341 0.46666666667 0.35988620199 0.25320512821
          0.093945720251 0 0 0.10588235294 0.31407942238 0.39903846154
          0.44409448819 0.48988439306 0.39903846154 0.31407942238 0.10588235294 0
          0 0.16718266254 0.36705882353 0.43841336117 0.44536082474 0.49530956848
          0.43841336117 0.36705882353 0.16718266254 0 0 0.16728624535
          0.36543909348 0.43718592965 0.44554455446 0.49435665914 0.43718592965 0.36543909348
          0.16728624535 0 0 0 0 0
          0 0 0 0 0 0
          0 0.025280898876 0 0 0 0
          0 0 0.025280898876 0 0 0.049568965517
          0.066666666667 0.038461538462 0.013005780347 0.012016021362 0.038461538462 0.066666666667
          0.049568965517 0 0 0.06309751434 0.1050295858 0.10367454068
          0.037179487179 0.034360189573 0.10367454068 0.1050295858 0.06309751434 0
          0 0.071294559099 0.15462427746 0.1641025641 0.12296110414 0.11316397229
          0.1641025641 0.15462427746 0.071294559099 0 0 0.082616179002
          0.19359145527 0.25473933649 0.34064665127 0.38930481283 0.25473933649 0.19359145527
          0.082616179002 0 0 0.093690248566 0.24852071006 0.35564304462
          0.41923076923 0.46327014218 0.35564304462 0.24852071006 0.093690248566 0
          0 0.10775862069 0.30833333333 0.39349112426 0.4436416185 0.48598130841
          0.39349112426 0.30833333333 0.10775862069 0 0 0.16292134831
          0.35560344828 0.43021032505 0.44465290807 0.49053356282 0.43021032505 0.35560344828
          0.16292134831 0 0 0.16216216216 0.35324675325 0.42857142857
          0.44469525959 0.48962655602 0.42857142857 0.35324675325 0.16216216216 0
          0 0 0 0 0 0
          0 0 0 0 0 0.025
          0 0 0 0 0 0
          0.025 0 0 0.05023923445 0.068391866913 0.039344262295
          0.012820512821 0.011834319527 0.039344262295 0.068391866913 0.05023923445 0
          0 0.063694267516 0.10819672131 0.10465116279 0.036984352774 0.034120734908
          0.10465116279 0.10819672131 0.063694267516 0 0 0.070981210856
          0.15544871795 0.16500711238 0.12290502793 0.11282051282 0.16500711238 0.15544871795
          0.070981210856 0 0 0.082217973231 0.19378698225 0.25459317585
          0.33974358974 0.38981042654 0.25459317585 0.19378698225 0.082217973231 0
          0 0.093418259023 0.24918032787 0.35610465116 0.41963015647 0.46456692913
          0.35610465116 0.24918032787 0.093418259023 0 0 0.10765550239
          0.30868761553 0.39508196721 0.44391025641 0.48668639053 0.39508196721 0.30868761553
          0.10765550239 0 0 0.1625 0.35645933014 0.43099787686
          0.44467640919 0.4913957935 0.43099787686 0.35645933014 0.1625 0
          0 0.16165413534 0.35446685879 0.42966751918 0.44472361809 0.49078341014
          0.42966751918 0.35446685879 0.16165413534 0 0 0
          0 0 0 0 0 0
          0 0 0 0.024647887324 0 0
          0 0 0 0 0.024647887324 0
          0 0.051212938005 0.06875 0.038817005545 0.012635379061 0.011666666667
          0.038817005545 0.06875 0.051212938005 0 0 0.064593301435
          0.10905730129 0.10491803279 0.036858974359 0.034023668639 0.10491803279 0.10905730129
          0.064593301435 0 0 0.070588235294 0.15523465704 0.16506410256
          0.12283464567 0.11271676301 0.16506410256 0.15523465704 0.070588235294 0
          0 0.081896551724 0.19333333333 0.25443786982 0.33959537572 0.38985313752
          0.25443786982 0.19333333333 0.081896551724 0 0 0.093301435407
          0.24768946396 0.35573770492 0.41987179487 0.46449704142 0.35573770492 0.24768946396
          0.093301435407 0 0 0.10781671159 0.30833333333 0.39556377079
          0.4440433213 0.48666666667 0.39556377079 0.30833333333 0.10781671159 0
          0 0.16197183099 0.35579514825 0.43062200957 0.44470588235 0.49137931034
          0.43062200957 0.35579514825 0.16197183099 0 0 0.16101694915
          0.3538961039 0.42939481268 0.4447592068 0.49090909091 0.42939481268 0.3538961039
          0.16101694915 0 0 0 0 0
          0 0 0 0 0 0
          0 0.027906976744 0 0 0 0
          0 0 0.027906976744 0 0 0.056338028169
          0.072776280323 0.040669856459 0.014117647059 0.012931034483 0.040669856459 0.072776280323
          0.056338028169 0 0 0.06875 0.11483253589 0.10828025478
          0.0375782881 0.034416826004 0.10828025478 0.11483253589 0.06875 0
          0 0.074303405573 0.16235294118 0.16910229645 0.12371134021 0.11257035647
          0.16910229645 0.16235294118 0.074303405573 0 0 0.084269662921
          0.20043103448 0.25812619503 0.33771106942 0.39242685026 0.25812619503 0.20043103448
          0.084269662921 0 0 0.09375 0.25358851675 0.36093418259
          0.41962421712 0.46845124283 0.36093418259 0.25358851675 0.09375 0
          0 0.10563380282 0.3153638814 0.4019138756 0.44470588235 0.49137931034
          0.4019138756 0.3153638814 0.10563380282 0 0 0.16744186047
          0.36971830986 0.440625 0.44582043344 0.49719101124 0.440625 0.36971830986
          0.16744186047 0 0 0.16759776536 0.3686440678 0.43984962406
          0.44609665428 0.49662162162 0.43984962406 0.3686440678 0.16759776536 0
          0 0 0 0 0 0
          0 0 0 0 0 0.027932960894
          0 0 0 0 0 0
          0.027932960894 0 0 0.055084745763 0.071428571429 0.040345821326
          0.014164305949 0.012987012987 0.040345821326 0.071428571429 0.055084745763 0
          0 0.067669172932 0.11239193084 0.1074168798 0.037688442211 0.034562211982
          0.1074168798 0.11239193084 0.067669172932 0 0 0.074349442379
          0.16147308782 0.16834170854 0.12376237624 0.11286681716 0.16834170854 0.16147308782
          0.074349442379 0 0 0.084459459459 0.2 0.25806451613
          0.33860045147 0.39211618257 0.25806451613 0.2 0.084459459459 0
          0 0.093984962406 0.25360230548 0.36061381074 0.41959798995 0.46774193548
          0.36061381074 0.25360230548 0.093984962406 0 0 0.10593220339
          0.31493506494 0.40057636888 0.4447592068 0.49090909091 0.40057636888 0.31493506494
          0.10593220339 0 0 0.16759776536 0.3686440678 0.43984962406
          0.44609665428 0.49662162162 0.43984962406 0.3686440678 0.16759776536 0
          0 0.1677852349 0.36734693878 0.43891402715 0.44642857143 0.49593495935
          0.43891402715 0.36734693878 0.1677852349 0
        </DataArray>
        <DataArray type="Float64" Name="Displacement" NumberOfComponents="3" format="ascii" RangeMin="1.5170472174" RangeMax="1.5504114566">
          -0.033787017372 -1.5356839641 -0.092695991151 -0.033892622689 -1.5329320786 -0.094930008838
          -0.034259406288 -1.5308978831 -0.095885879458 -0.034404242645 -1.5339216373 -0.094443631303
          -0.033811416881 -1.5375418365 -0.091962937442 -0.033764075083 -1.5371056912 -0.09347852086
          -0.032525852497 -1.5381535938 -0.094229831158 -0.032729162579 -1.5375196622 -0.096030769688
          -0.033138247477 -1.5422597948 -0.094854686687 -0.033573588547 -1.5473068756 -0.092140825148
          -0.034462058076 -1.5297170278 -0.09420599658 -0.034479678769 -1.5314012093 -0.095483867834
          -0.033049979986 -1.532232826 -0.097258366683 -0.031683682617 -1.5351552757 -0.095919487098
          -0.032519428368 -1.5364148958 -0.09563330565 -0.033088180738 -1.5379017168 -0.095944261656
          -0.032707185082 -1.5388513425 -0.095866598219 -0.031726431773 -1.5380557556 -0.096563179478
          -0.029869622819 -1.5409042099 -0.095120088444 -0.029845308897 -1.5418155059 -0.09381976161
          -0.031676200699 -1.5302815558 -0.097674828075 -0.033809399801 -1.5326947584 -0.095473755637
          -0.03112689883 -1.5332582709 -0.097554671539 -0.030836626506 -1.5349026914 -0.097475732785
          -0.030904648488 -1.5357973469 -0.097909926453 -0.030875246748 -1.536252559 -0.09837777948
          -0.031314781892 -1.5389068396 -0.097393544386 -0.031139633385 -1.540030845 -0.097133766622
          -0.028206857701 -1.5418124737 -0.095011276278 -0.030671025658 -1.5421028575 -0.097158359581
          -0.029574455968 -1.53138357 -0.099282285981 -0.028537056108 -1.531979305 -0.098317121198
          -0.029927376533 -1.5343210559 -0.098877173904 -0.029580258729 -1.5350800868 -0.099220094906
          -0.029796342588 -1.5360767795 -0.099351305724 -0.02977190385 -1.5377046754 -0.099097554206
          -0.029301033118 -1.5392469953 -0.098584370557 -0.029505819848 -1.5404814907 -0.098597087623
          -0.030662798566 -1.5412699937 -0.09816252204 -0.030049012145 -1.5429474648 -0.098399950599
          -0.029421527974 -1.5316930363 -0.098641010892 -0.028707114078 -1.5319906514 -0.10016031713
          -0.029088852495 -1.5339380554 -0.10032141967 -0.028418734505 -1.5345379692 -0.1000565549
          -0.028196945835 -1.5363431208 -0.10034602706 -0.028780280004 -1.5367685223 -0.099456232488
          -0.028918269523 -1.5385270498 -0.099907693993 -0.027668770051 -1.5404074279 -0.099949640524
          -0.028045286897 -1.5414625417 -0.099854074298 -0.027353983219 -1.543343898 -0.098073273925
          -0.027647054805 -1.5325494512 -0.10166327586 -0.025416133203 -1.532284119 -0.10215918668
          -0.026503503687 -1.533555283 -0.10157479489 -0.026940486902 -1.5345615127 -0.10093639661
          -0.027706743237 -1.5363224288 -0.10251666641 -0.026733362133 -1.5376760275 -0.10274461411
          -0.027549035943 -1.5387116341 -0.101215071 -0.027637879742 -1.5398653664 -0.10083853552
          -0.028547159638 -1.5415542863 -0.10183381984 -0.026520578352 -1.5443362542 -0.1012853633
          -0.023531790186 -1.5303979432 -0.10454228354 -0.022504880838 -1.5312589996 -0.1042270254
          -0.024487967412 -1.5330371285 -0.10344261301 -0.023392437119 -1.5352283727 -0.10258463798
          -0.026212103593 -1.5377849864 -0.10383287148 -0.025510919443 -1.5390786182 -0.10354604014
          -0.028343308446 -1.5388151069 -0.1023434269 -0.027124359061 -1.5395416737 -0.1029772536
          -0.029020036839 -1.5405646602 -0.1037035205 -0.027918906902 -1.5420678736 -0.10394670805
          -0.022425762862 -1.5317582191 -0.10508174957 -0.022180948517 -1.5318326872 -0.10544480217
          -0.023426572796 -1.5335819993 -0.10503401734 -0.024895084346 -1.5352688101 -0.10488642936
          -0.023724406819 -1.5351644043 -0.10316823759 -0.025226354333 -1.5365262529 -0.10323591281
          -0.024458801292 -1.5392260798 -0.10455879252 -0.025527935833 -1.5401337906 -0.10474440445
          -0.026614792288 -1.5407888212 -0.10502834888 -0.026352702455 -1.5435660075 -0.10464004942
          -0.02222222125 -1.5295585916 -0.10583950603 -0.020595797664 -1.5333573394 -0.10758018817
          -0.021601473015 -1.5329108107 -0.10565403353 -0.022406515183 -1.5332473897 -0.10535748562
          -0.023653051786 -1.5374084484 -0.10620037871 -0.022718033299 -1.5388320523 -0.10628486183
          -0.023753142846 -1.5373140709 -0.10516484896 -0.024782242123 -1.5392677322 -0.10533451639
          -0.025941038001 -1.5420000384 -0.10708378193 -0.02387322583 -1.5410075293 -0.10498866947
          -0.019719136433 -1.5258502703 -0.10355518689 -0.020931615029 -1.5298698423 -0.10674655643
          -0.022655202374 -1.5291418575 -0.10291498467 -0.024938488137 -1.5317614376 -0.10444789159
          -0.017087259935 -1.5341625047 -0.10456229292 -0.026866403895 -1.5353115839 -0.1045139265
          -0.018708230196 -1.5360189949 -0.10437445059 -0.021142091374 -1.5357453065 -0.10253964553
          -0.022680570037 -1.5388823292 -0.10630578361 -0.023891200641 -1.5373178352 -0.10250443038
          -0.033191573641 -1.5294768269 -0.096595517496 -0.034324953669 -1.5306597761 -0.094036177511
          -0.033070992638 -1.5327128454 -0.09468642936 -0.033146442814 -1.5334130716 -0.095234302011
          -0.033767535012 -1.5346313025 -0.095234490134 -0.033780410094 -1.5356500839 -0.095136238367
          -0.03408553066 -1.5371195184 -0.095383038252 -0.034248779247 -1.5392457705 -0.093982144647
          -0.032649848315 -1.5396614044 -0.093784624093 -0.034497288533 -1.5410925971 -0.096003823076
          -0.031430548806 -1.531249811 -0.097071054416 -0.031797962807 -1.531220669 -0.095664245399
          -0.032094653293 -1.5321240663 -0.096550464735 -0.032346634175 -1.5335157151 -0.09630898746
          -0.032528041587 -1.5348580008 -0.096029863434 -0.032613828462 -1.5356767372 -0.096438063585
          -0.03222308383 -1.5377990216 -0.095824033783 -0.032410074236 -1.5386849569 -0.096238562746
          -0.032887874807 -1.5405107762 -0.09530034123 -0.033216231747 -1.5427596751 -0.096563661516
          -0.031193604248 -1.5295417611 -0.097146544395 -0.031157420656 -1.5310855832 -0.09704051124
          -0.031418821842 -1.5327309861 -0.096596435284 -0.03111461949 -1.5335334956 -0.097325700308
          -0.031013629286 -1.5349999339 -0.097252703641 -0.031076294955 -1.53636316 -0.09731535743
          -0.03090315229 -1.5376695706 -0.097033105541 -0.030499876313 -1.5390790841 -0.096361136788
          -0.030956737415 -1.5404261468 -0.096502266255 -0.030629314 -1.5414692932 -0.096686030764
          -0.030871036386 -1.5291320454 -0.09713836614 -0.029445177415 -1.5308885312 -0.098857015851
          -0.029274877185 -1.5321242786 -0.099341915231 -0.029634753128 -1.533605627 -0.099073533778
          -0.029773654366 -1.534974975 -0.098877561769 -0.029794488247 -1.5363551845 -0.098808845249
          -0.029922759496 -1.5375525563 -0.098842731386 -0.030338373595 -1.5387790729 -0.099128103832
          -0.030000065849 -1.5400477622 -0.09849803393 -0.028459322828 -1.5410438641 -0.096814142748
          -0.029109945904 -1.5292905498 -0.098918767467 -0.027910876302 -1.5311011281 -0.10054162312
          -0.028374493712 -1.5321371318 -0.10013576652 -0.028254748265 -1.533572766 -0.10042002371
          -0.028406769093 -1.5349177091 -0.10029899641 -0.028541436878 -1.5361951905 -0.10014380317
          -0.028350832332 -1.5377660693 -0.10008435183 -0.028280441568 -1.5386312104 -0.09982298193
          -0.028780299225 -1.5402451763 -0.1002273516 -0.027624685406 -1.5413134537 -0.098415251688
          -0.026302921369 -1.529418784 -0.10205791482 -0.026526401034 -1.5306089917 -0.10233055282
          -0.026771921073 -1.5320484485 -0.10182286782 -0.027787400715 -1.5338323666 -0.1016279736
          -0.027153925322 -1.535044846 -0.10227470652 -0.027079309979 -1.536230394 -0.1021753367
          -0.026592148555 -1.5378252889 -0.1017306522 -0.027805621581 -1.538452005 -0.1013864683
          -0.027978810967 -1.5393143535 -0.10144312008 -0.027908614079 -1.5403123024 -0.101350259
          -0.024884471106 -1.5285421333 -0.10383007417 -0.025036114963 -1.5307064225 -0.10342981882
          -0.025872449248 -1.5321721674 -0.10311579311 -0.026336112698 -1.5336457804 -0.10313019969
          -0.025354775029 -1.5346652085 -0.10306256514 -0.026501319596 -1.5362483007 -0.10319767891
          -0.025370278917 -1.5376004524 -0.10295908768 -0.025899468603 -1.5385124703 -0.10253340274
          -0.026638455643 -1.5396447124 -0.10289611311 -0.026732804158 -1.5403410607 -0.10317212231
          -0.02526869922 -1.5298658694 -0.10408880958 -0.023567132417 -1.5303419117 -0.10470745448
          -0.024101406377 -1.5318295396 -0.10442846431 -0.02432146805 -1.5336490955 -0.10498351022
          -0.023500999815 -1.5352866453 -0.10463509576 -0.025599046403 -1.5366697211 -0.10450040208
          -0.024902473245 -1.5376136608 -0.10487518943 -0.024807140407 -1.5383166138 -0.10416588941
          -0.025377329147 -1.5396172524 -0.10444411657 -0.023914916534 -1.5417580947 -0.1033567958
          -0.021682236743 -1.530137187 -0.10835354215 -0.023356195157 -1.5301936723 -0.1053682293
          -0.023271376548 -1.5323760651 -0.10657101745 -0.023260087392 -1.533067155 -0.10590130002
          -0.024174950394 -1.5347728757 -0.10622213887 -0.022302784602 -1.5361011582 -0.10634531715
          -0.023238742602 -1.5369839409 -0.10580615099 -0.023196281958 -1.5388499642 -0.10641594664
          -0.022986025318 -1.5394523765 -0.10514845262 -0.024742049717 -1.541565092 -0.10780857307
          -0.023927167323 -1.530207192 -0.10358934406 -0.018699755335 -1.529291997 -0.10674849702
          -0.020760730873 -1.5317240808 -0.10818057592 -0.021527719747 -1.533792139 -0.1086522973
          -0.024651910943 -1.5311104592 -0.10809586542 -0.018941921665 -1.5331130602 -0.10732536808
          -0.022552601692 -1.5373715464 -0.10831943979 -0.023265863559 -1.5379005184 -0.10774446014
          -0.024976770777 -1.5380957428 -0.10662805038 -0.019895516304 -1.5419156297 -0.10312088077
          -0.034832628228 -1.5270544243 -0.094035128879 -0.034221493781 -1.5288617217 -0.094354821466
          -0.03243799012 -1.5307781191 -0.095967893426 -0.033136538711 -1.5322591014 -0.094384019249
          -0.033461004839 -1.5333632885 -0.094610564913 -0.033417277986 -1.5333919742 -0.0958328066
          -0.034041255188 -1.5362848573 -0.094088446392 -0.034936754056 -1.5371384227 -0.095548728721
          -0.033125480938 -1.5382060118 -0.093994738659 -0.032221649203 -1.5382305505 -0.093731234644
          -0.032320197873 -1.5276197577 -0.096400638859 -0.032947241596 -1.529487658 -0.095930754984
          -0.032466232511 -1.5305333334 -0.096305050626 -0.032429574192 -1.532031699 -0.096146779051
          -0.032374360283 -1.5339346684 -0.095668348419 -0.032294848416 -1.5349351603 -0.095832638065
          -0.032328879018 -1.5358380088 -0.096053731502 -0.032058812021 -1.5367045027 -0.096052303277
          -0.031772157947 -1.5387247884 -0.095397023274 -0.032409279926 -1.5393304387 -0.095925086904
          -0.03105809417 -1.5282916488 -0.097094569796 -0.030395227333 -1.5295972743 -0.097882256586
          -0.03109515301 -1.5309645042 -0.097470389167 -0.03098866917 -1.532191137 -0.097362133809
          -0.031067547661 -1.5334974095 -0.097352359195 -0.031174975709 -1.534780007 -0.097227194534
          -0.031166672647 -1.5360884827 -0.097253279858 -0.031139823552 -1.5373870485 -0.097292551404
          -0.031948002141 -1.5387160678 -0.097550564812 -0.031012632799 -1.5402300263 -0.096352286238
          -0.029749364831 -1.5285100997 -0.098853156151 -0.02938265204 -1.5294993186 -0.099237208319
          -0.029593042283 -1.5307440677 -0.099135561193 -0.02974200549 -1.5321920761 -0.099000965203
          -0.029989858438 -1.5336813259 -0.09913990758 -0.02981317625 -1.5347382439 -0.098799664487
          -0.029755193607 -1.5360939783 -0.09879254927 -0.029954559384 -1.5372356394 -0.098838319577
          -0.030315880799 -1.5386428954 -0.099052711402 -0.029685415163 -1.5399402842 -0.098276001025
          -0.028837000531 -1.5279340156 -0.099865374358 -0.027923246797 -1.5294003659 -0.10076675565
          -0.028663699105 -1.5307960641 -0.10033727598 -0.028514579048 -1.5321676822 -0.10039007565
          -0.028366743206 -1.533565365 -0.10033308717 -0.028536400223 -1.5348872744 -0.10027325132
          -0.028526397162 -1.5360038843 -0.10021683566 -0.028390299221 -1.5373551175 -0.10006081829
          -0.029124265217 -1.5384922189 -0.1004851267 -0.027784565416 -1.5394951939 -0.099247550277
          -0.0261747501 -1.5286018823 -0.10323262472 -0.027259244912 -1.5294212307 -0.1017825625
          -0.026832337636 -1.5307375611 -0.101899228 -0.026467661135 -1.5319963301 -0.10167652303
          -0.027201789249 -1.5336004464 -0.10203756161 -0.027144220948 -1.5349278083 -0.10189589351
          -0.027757504884 -1.5359905818 -0.10149225895 -0.027353545623 -1.537306014 -0.1015327384
          -0.027276026157 -1.5385002675 -0.10150147658 -0.028191166226 -1.5401564881 -0.1027512567
          -0.025843191549 -1.5286078023 -0.10313811103 -0.025129053842 -1.5292439425 -0.10344572306
          -0.02532802441 -1.5306056023 -0.10328243928 -0.025344799602 -1.5322038516 -0.10318152443
          -0.025324902645 -1.5337408905 -0.10329432112 -0.02640738804 -1.5348950492 -0.10317327327
          -0.02635476212 -1.5360154308 -0.10281627859 -0.026488130472 -1.5371992456 -0.10306438614
          -0.026659116582 -1.5382574382 -0.10299982221 -0.025733173128 -1.5402282158 -0.10253067909
          -0.02428863908 -1.5281705526 -0.10451442668 -0.023855989183 -1.5294279064 -0.10508902215
          -0.023937955137 -1.5303720098 -0.1045265829 -0.024748359363 -1.5322643137 -0.1050922337
          -0.023812874676 -1.5335500543 -0.10453519181 -0.025271961341 -1.5352296783 -0.10483641741
          -0.024517814908 -1.5361574002 -0.10494280968 -0.02540442055 -1.5371458312 -0.10458853235
          -0.025064458596 -1.5385035711 -0.10437214589 -0.024846537084 -1.5395904669 -0.10385476637
          -0.022792076452 -1.5282687369 -0.10689192308 -0.023199653012 -1.5291574236 -0.10609567142
          -0.022994705324 -1.5301753867 -0.10598979866 -0.022515722609 -1.532164952 -0.10626010715
          -0.02321528149 -1.5324493343 -0.10561108943 -0.023123559232 -1.5338493858 -0.10545986647
          -0.024086636147 -1.5361733015 -0.10603844552 -0.023611656901 -1.5370168198 -0.10561956471
          -0.023494474776 -1.5385135803 -0.10543233329 -0.024221579468 -1.5398249753 -0.10622037526
          -0.021252237919 -1.5279963365 -0.10785113564 -0.02342873141 -1.5305113103 -0.10713603794
          -0.021704777462 -1.5299145797 -0.10665813453 -0.024422845033 -1.5309272043 -0.10788656712
          -0.021455962964 -1.5338256622 -0.10771016563 -0.022522284432 -1.535200358 -0.10783925491
          -0.019531265689 -1.5348799533 -0.1075926906 -0.022123456358 -1.5363566795 -0.10639973695
          -0.020908787252 -1.5393358262 -0.10680953914 -0.022579097716 -1.5394961893 -0.10737861155
          -0.034594259938 -1.5259072716 -0.094735444891 -0.032462389339 -1.5291332249 -0.0956419965
          -0.033734985941 -1.5295899742 -0.095021086272 -0.034078918398 -1.5303134227 -0.095007446558
          -0.033646295568 -1.5328096779 -0.094223964124 -0.033708689279 -1.5338783082 -0.093908876243
          -0.033385360036 -1.5342538068 -0.09487248356 -0.033730038355 -1.5360426676 -0.094687015758
          -0.034935061106 -1.5378974126 -0.095187344169 -0.032700740566 -1.5374836845 -0.094241140501
          -0.031764507274 -1.5281345593 -0.095668112841 -0.032183511466 -1.5284162949 -0.09613251299
          -0.032354209342 -1.5295543495 -0.096023336313 -0.032530707 -1.5305969047 -0.096118838787
          -0.032453743577 -1.53223342 -0.095958364647 -0.032385694097 -1.5333339034 -0.096047171489
          -0.03225123271 -1.5341405789 -0.096138748002 -0.032672524467 -1.5362420156 -0.095835769737
          -0.032737135033 -1.5375346818 -0.095656349227 -0.032957879087 -1.5397523115 -0.095170137904
          -0.030741478198 -1.5272483403 -0.09800328099 -0.031240652059 -1.5281271455 -0.09748636676
          -0.031030203286 -1.529194556 -0.097534340109 -0.031074480362 -1.5306325344 -0.097482288863
          -0.0310401944 -1.5321061176 -0.097439902421 -0.031121814117 -1.5333190644 -0.097389801607
          -0.031103459058 -1.5345445433 -0.097371550587 -0.031082874888 -1.5357102127 -0.097212490643
          -0.030913657605 -1.5372735478 -0.097086965658 -0.031678476715 -1.5390222034 -0.097343932448
          -0.029349032699 -1.5265539658 -0.099500834287 -0.029815519358 -1.5281232126 -0.09899027568
          -0.029784328294 -1.5294439979 -0.098958520168 -0.029855868676 -1.5307378298 -0.098889090028
          -0.029841254347 -1.5320082406 -0.098934393192 -0.029791251617 -1.5333876697 -0.09882944762
          -0.02979726175 -1.5346745107 -0.098776757512 -0.029793513233 -1.535962899 -0.098754054668
          -0.029750484743 -1.5372229608 -0.098609604297 -0.030215426118 -1.5381816694 -0.098894242348
          -0.028058503122 -1.5265038919 -0.10035617565 -0.028261897073 -1.5279243027 -0.10056869065
          -0.028441142275 -1.5293816791 -0.10047440862 -0.028515329596 -1.5307810932 -0.10048764805
          -0.028555335723 -1.5320984832 -0.10036517037 -0.028553960216 -1.5334643981 -0.10025761814
          -0.0286174073 -1.5346799022 -0.10028474267 -0.028464166232 -1.5358113834 -0.10022052378
          -0.028744008923 -1.5370230194 -0.10017916566 -0.028922362752 -1.5381596731 -0.10002958287
          -0.026792948557 -1.526277955 -0.10206967166 -0.026954599212 -1.5279517183 -0.10195853584
          -0.027149894633 -1.5294339649 -0.10189949803 -0.027176784643 -1.5307896534 -0.10187486078