<?xml version="1.0"?>
<VTKFile type="UnstructuredGrid" version="0.1" byte_order="LittleEndian" compressor="vtkZLibDataCompressor">
  <UnstructuredGrid>
    <FieldData>
      <DataArray type="Float64" Name="TIME" NumberOfTuples="1" format="ascii" RangeMin="0.53278064845" RangeMax="0.53278064845">
        0.53278064845
      </DataArray>
    </FieldData>
    <Piece NumberOfPoints="1000" NumberOfCells="0">
      <PointData>
        <DataArray type="Float64" Name="Damage" format="ascii" RangeMin="0" RangeMax="0.49719101124">
          0 0 0 0 0 0
          0 0 0 0 0 0.027932960894
          0 0 0 0 0 0
          0.027932960894 0 0 0.055084745763 0.071428571429 0.040345821326
          0.014164305949 0.012987012987 0.040345821326 0.071428571429 0.055084745763 0
          0 0.067669172932 0.11239193084 0.1074168798 0.037688442211 0.034562211982
          0.1074168798 0.11239193084 0.067669172932 0 0 0.074349442379
          0.16147308782 0.16834170854 0.12376237624 0.11286681716 0.16834170854 0.16147308782
          0.074349442379 0 0 0.084459459459 0.2 0.25806451613
          0.33860045147 0.39211618257 0.25806451613 0.2 0.084459459459 0
          0 0.093984962406 0.25360230548 0.36061381074 0.41959798995 0.46774193548
          0.36061381074 0.25360230548 0.093984962406 0 0 0.10593220339
          0.31493506494 0.40057636888 0.4447592068 0.49090909091 0.40057636888 0.31493506494
          0.10593220339 0 0 0.16759776536 0.3686440678 0.43984962406
          0.44609665428 0.49662162162 0.43984962406 0.3686440678 0.16759776536 0
          0 0.1677852349 0.36734693878 0.43891402715 0.44642857143 0.49593495935
          0.43891402715 0.36734693878 0.1677852349 0 0 0
          0 0 0 0 0 0
          0 0 0 0.027906976744 0 0
          0 0 0 0 0.027906976744 0
          0 0.056338028169 0.072776280323 0.040669856459 0.014117647059 0.012931034483
          0.040669856459 0.072776280323 0.056338028169 0 0 0.06875
          0.11483253589 0.10828025478 0.0375782881 0.034416826004 0.10828025478 0.11483253589
          0.06875 0 0 0.074303405573 0.16235294118 0.16910229645
          0.12371134021 0.11257035647 0.16910229645 0.16235294118 0.074303405573 0
          0 0.084269662921 0.20043103448 0.25812619503 0.33771106942 0.39242685026
          0.25812619503 0.20043103448 0.084269662921 0 0 0.09375
          0.25358851675 0.36093418259 0.41962421712 0.46845124283 0.36093418259 0.25358851675
          0.09375 0 0 0.10563380282 0.3153638814 0.4019138756
          0.44470588235 0.49137931034 0.4019138756 0.3153638814 0.10563380282 0
          0 0.16744186047 0.36971830986 0.440625 0.44582043344 0.49719101124
          0.440625 0.36971830986 0.16744186047 0 0 0.16759776536
          0.3686440678 0.43984962406 0.44609665428 0.49662162162 0.43984962406 0.3686440678
          0.16759776536 0 0 0 0 0
          0 0 0 0 0 0
          0 0.024647887324 0 0 0 0
          0 0 0.024647887324 0 0 0.051212938005
          0.06875 0.038817005545 0.012635379061 0.011666666667 0.038817005545 0.06875
          0.051212938005 0 0 0.064593301435 0.10905730129 0.10491803279
          0.036858974359 0.034023668639 0.10491803279 0.10905730129 0.064593301435 0
          0 0.070588235294 0.15523465704 0.16506410256 0.12283464567 0.11271676301
          0.16506410256 0.15523465704 0.070588235294 0 0 0.081896551724
          0.19333333333 0.25443786982 0.33959537572 0.38985313752 0.25443786982 0.19333333333
          0.081896551724 0 0 0.093301435407 0.24768946396 0.35573770492
          0.41987179487 0.46449704142 0.35573770492 0.24768946396 0.093301435407 0
          0 0.10781671159 0.30833333333 0.39556377079 0.4440433213 0.48666666667
          0.39556377079 0.30833333333 0.10781671159 0 0 0.16197183099
          0.35579514825 0.43062200957 0.44470588235 0.49137931034 0.43062200957 0.35579514825
          0.16197183099 0 0 0.16101694915 0.3538961039 0.42939481268
          0.4447592068 0.49090909091 0.42939481268 0.3538961039 0.16101694915 0
          0 0 0 0 0 0
          0 0 0 0 0 0.025
          0 0 0 0 0 0
          0.025 0 0 0.05023923445 0.068391866913 0.039344262295
          0.012820512821 0.011834319527 0.039344262295 0.068391866913 0.05023923445 0
          0 0.063694267516 0.10819672131 0.10465116279 0.036984352774 0.034120734908
          0.10465116279 0.10819672131 0.063694267516 0 0 0.070981210856
          0.15544871795 0.16500711238 0.12290502793 0.11282051282 0.16500711238 0.15544871795
          0.070981210856 0 0 0.082217973231 0.19378698225 0.25459317585
          0.33974358974 0.38981042654 0.25459317585 0.19378698225 0.082217973231 0
          0 0.093418259023 0.24918032787 0.35610465116 0.41963015647 0.46456692913
          0.35610465116 0.24918032787 0.093418259023 0 0 0.10765550239
          0.30868761553 0.39508196721 0.44391025641 0.48668639053 0.39508196721 0.30868761553
          0.10765550239 0 0 0.1625 0.35645933014 0.43099787686
          0.44467640919 0.4913957935 0.43099787686 0.35645933014 0.1625 0
          0 0.16165413534 0.35446685879 0.42966751918 0.44472361809 0.49078341014
          0.42966751918 0.35446685879 0.16165413534 0 0 0
          0 0 0 0 0 0
          0 0 0 0.02786377709 0 0
          0 0 0 0 0.02786377709 0
          0 0.054117647059 0.070397111913 0.040064102564 0.014173228346 0.013005780347
          0.040064102564 0.070397111913 0.054117647059 0 0 0.066805845511
          0.11057692308 0.106685633 0.037709497207 0.034615384615 0.106685633 0.11057692308
          0.066805845511 0 0 0.074226804124 0.16062992126 0.16759776536
          0.12362637363 0.11292346299 0.16759776536 0.16062992126 0.074226804124 0
          0 0.084427767355 0.19942196532 0.25769230769 0.33877038896 0.39145496536
          0.25769230769 0.19942196532 0.084427767355 0 0 0.093945720251
          0.25320512821 0.35988620199 0.41899441341 0.46666666667 0.35988620199 0.25320512821
          0.093945720251 0 0 0.10588235294 0.31407942238 0.39903846154
          0.44409448819 0.48988439306 0.39903846154 0.31407942238 0.10588235294 0
          0 0.16718266254 0.36705882353 0.43841336117 0.44536082474 0.49530956848
          0.43841336117 0.36705882353 0.16718266254 0 0 0.16728624535
          0.36543909348 0.43718592965 0.44554455446 0.49435665914 0.43718592965 0.36543909348
          0.16728624535 0 0 0 0 0
          0 0 0 0 0 0
          0 0.025280898876 0 0 0 0
          0 0 0.025280898876 0 0 0.049568965517
          0.066666666667 0.038461538462 0.013005780347 0.012016021362 0.038461538462 0.066666666667
          0.049568965517 0 0 0.06309751434 0.1050295858 0.10367454068
          0.037179487179 0.034360189573 0.10367454068 0.1050295858 0.06309751434 0
          0 0.071294559099 0.15462427746 0.1641025641 0.12296110414 0.11316397229
          0.1641025641 0.15462427746 0.071294559099 0 0 0.082616179002
          0.19359145527 0.25473933649 0.34064665127 0.38930481283 0.25473933649 0.19359145527
          0.082616179002 0 0 0.093690248566 0.24852071006 0.35564304462
          0.41923076923 0.46327014218 0.35564304462 0.24852071006 0.093690248566 0
          0 0.10775862069 0.30833333333 0.39349112426 0.4436416185 0.48598130841
          0.39349112426 0.30833333333 0.10775862069 0 0 0.16292134831
          0.35560344828 0.43021032505 0.44465290807 0.49053356282 0.43021032505 0.35560344828
          0.16292134831 0 0 0.16216216216 0.35324675325 0.42857142857
          0.44469525959 0.48962655602 0.42857142857 0.35324675325 0.16216216216 0
          0 0 0 0 0 0
          0 0 0 0 0 0.025
          0 0 0 0 0 0
          0.025 0 0 0.05023923445 0.068391866913 0.039344262295
          0.012820512821 0.011834319527 0.039344262295 0.068391866913 0.05023923445 0
          0 0.063694267516 0.10819672131 0.10465116279 0.036984352774 0.034120734908
          0.10465116279 0.10819672131 0.063694267516 0 0 0.070981210856
          0.15544871795 0.16500711238 0.12290502793 0.11282051282 0.16500711238 0.15544871795
          0.070981210856 0 0 0.082217973231 0.19378698225 0.25459317585
          0.33974358974 0.38981042654 0.25459317585 0.19378698225 0.082217973231 0
          0 0.093418259023 0.24918032787 0.35610465116 0.41963015647 0.46456692913
          0.35610465116 0.24918032787 0.093418259023 0 0 0.10765550239
          0.30868761553 0.39508196721 0.44391025641 0.48668639053 0.39508196721 0.30868761553
          0.10765550239 0 0 0.1625 0.35645933014 0.43099787686
          0.44467640919 0.4913957935 0.43099787686 0.35645933014 0.1625 0
          0 0.16165413534 0.35446685879 0.42966751918 0.44472361809 0.49078341014
          0.42966751918 0.35446685879 0.16165413534 0 0 0
          0 0 0 0 0 0
          0 0 0 0.024647887324 0 0
          0 0 0 0 0.024647887324 0
          0 0.051212938005 0.06875 0.038817005545 0.012635379061 0.011666666667
          0.038817005545 0.06875 0.051212938005 0 0 0.064593301435
          0.10905730129 0.10491803279 0.036858974359 0.034023668639 0.10491803279 0.10905730129
          0.064593301435 0 0 0.070588235294 0.15523465704 0.16506410256
          0.12283464567 0.11271676301 0.16506410256 0.15523465704 0.070588235294 0
          0 0.081896551724 0.19333333333 0.25443786982 0.33959537572 0.38985313752
          0.25443786982 0.19333333333 0.081896551724 0 0 0.093301435407
          0.24768946396 0.35573770492 0.41987179487 0.46449704142 0.35573770492 0.24768946396
          0.093301435407 0 0 0.10781671159 0.30833333333 0.39556377079
          0.4440433213 0.48666666667 0.39556377079 0.30833333333 0.10781671159 0
          0 0.16197183099 0.35579514825 0.43062200957 0.44470588235 0.49137931034
          0.43062200957 0.35579514825 0.16197183099 0 0 0.16101694915
          0.3538961039 0.42939481268 0.4447592068 0.49090909091 0.42939481268 0.3538961039
          0.16101694915 0 0 0 0 0
          0 0 0 0 0 0
          0 0.027906976744 0 0 0 0
          0 0 0.027906976744 0 0 0.056338028169
          0.072776280323 0.040669856459 0.014117647059 0.012931034483 0.040669856459 0.072776280323
          0.056338028169 0 0 0.06875 0.11483253589 0.10828025478
          0.0375782881 0.034416826004 0.10828025478 0.11483253589 0.06875 0
          0 0.074303405573 0.16235294118 0.16910229645 0.12371134021 0.11257035647
          0.16910229645 0.16235294118 0.074303405573 0 0 0.084269662921
          0.20043103448 0.25812619503 0.33771106942 0.39242685026 0.25812619503 0.20043103448
          0.084269662921 0 0 0.09375 0.25358851675 0.36093418259
          0.41962421712 0.46845124283 0.36093418259 0.25358851675 0.09375 0
          0 0.10563380282 0.3153638814 0.4019138756 0.44470588235 0.49137931034
          0.4019138756 0.3153638814 0.10563380282 0 0 0.16744186047
          0.36971830986 0.440625 0.44582043344 0.49719101124 0.440625 0.36971830986
          0.16744186047 0 0 0.16759776536 0.3686440678 0.43984962406
          0.44609665428 0.49662162162 0.43984962406 0.3686440678 0.16759776536 0
          0 0 0 0 0 0
          0 0 0 0 0 0.027932960894
          0 0 0 0 0 0
          0.027932960894 0 0 0.055084745763 0.071428571429 0.040345821326
          0.014164305949 0.012987012987 0.040345821326 0.071428571429 0.055084745763 0
          0 0.067669172932 0.11239193084 0.1074168798 0.037688442211 0.034562211982
          0.1074168798 0.11239193084 0.067669172932 0 0 0.074349442379
          0.16147308782 0.16834170854 0.12376237624 0.11286681716 0.16834170854 0.16147308782
          0.074349442379 0 0 0.084459459459 0.2 0.25806451613
          0.33860045147 0.39211618257 0.25806451613 0.2 0.084459459459 0
          0 0.093984962406 0.25360230548 0.36061381074 0.41959798995 0.46774193548
          0.36061381074 0.25360230548 0.093984962406 0 0 0.10593220339
          0.31493506494 0.40057636888 0.4447592068 0.49090909091 0.40057636888 0.31493506494
          0.10593220339 0 0 0.16759776536 0.3686440678 0.43984962406
          0.44609665428 0.49662162162 0.43984962406 0.3686440678 0.16759776536 0
          0 0.1677852349 0.36734693878 0.43891402715 0.44642857143 0.49593495935
          0.43891402715 0.36734693878 0.1677852349 0
        </DataArray>
        <DataArray type="Float64" Name="Displacement" NumberOfComponents="3" format="ascii" RangeMin="1.0216792515" RangeMax="1.0511553676">
          -0.029171771128 -1.0339371792 -0.078242141969 -0.031160884207 -1.0349120405 -0.084462525186
          -0.030120366602 -1.0362004751 -0.082563722625 -0.030875537514 -1.0383683551 -0.081950338486
          -0.030129318805 -1.0396065713 -0.08201537639 -0.030081279289 -1.0400941353 -0.082282159421
          -0.029354912811 -1.0422824688 -0.081892956206 -0.030137198529 -1.0424845752 -0.082132225314
          -0.028968853492 -1.0436220619 -0.084315637195 -0.031119082828 -1.044679445 -0.077675774012
          -0.026691407862 -1.034184172 -0.086318786866 -0.027491375221 -1.0355984754 -0.086012278584
          -0.029005816524 -1.0379579422 -0.083150681845 -0.029148712922 -1.0370687698 -0.084245089395
          -0.028459863237 -1.0388194668 -0.084621658752 -0.028247835971 -1.0397843594 -0.084358246283
          -0.029036671068 -1.0410191088 -0.084195275692 -0.028893236551 -1.0443194823 -0.082602214147
          -0.030368445471 -1.0441909127 -0.085660059753 -0.031492060693 -1.0454379891 -0.08642215302
          -0.027894700278 -1.0337389203 -0.084815675264 -0.027382810486 -1.0353389416 -0.085466949216
          -0.027309840582 -1.0372762525 -0.085727714859 -0.027081201231 -1.0380970519 -0.086284300554
          -0.027656213298 -1.0399036562 -0.085084348712 -0.027441784979 -1.0411080471 -0.08520217312
          -0.027918928284 -1.0418428485 -0.085952262516 -0.028260715984 -1.0436488409 -0.085399121825
          -0.028091646736 -1.0438927414 -0.084970573722 -0.027439533978 -1.0445117417 -0.084705384778
          -0.02433921047 -1.0344393285 -0.088657990386 -0.026595636703 -1.0355005589 -0.08788842274
          -0.026011402512 -1.0366963514 -0.087925351181 -0.026638279066 -1.0382405034 -0.086881650058
          -0.026448237415 -1.0401250319 -0.086471471825 -0.026540544071 -1.0402478399 -0.087338007291
          -0.027123018822 -1.0406074735 -0.087747981414 -0.026840409706 -1.0428791326 -0.087562422679
          -0.026284033628 -1.0442957987 -0.087796154726 -0.028557358181 -1.0455099859 -0.088379586693
          -0.025008414901 -1.0352033488 -0.088013487918 -0.024414167899 -1.0357119304 -0.087894838614
          -0.024885901881 -1.0363806233 -0.089093099215 -0.023873260296 -1.0375418675 -0.088564226933
          -0.025143565396 -1.0401771343 -0.088527191038 -0.024640526257 -1.0416441512 -0.088200942453
          -0.026296562885 -1.0414304543 -0.08834782239 -0.025518954237 -1.0423804731 -0.088694798628
          -0.026005859817 -1.0439704099 -0.087895193423 -0.025204215855 -1.0461722754 -0.087747322629
          -0.024029218993 -1.0338233914 -0.089146198036 -0.02410893007 -1.0356865647 -0.090128799157
          -0.02414964604 -1.0366404665 -0.089849229479 -0.023725741695 -1.0386447892 -0.090712259002
          -0.026291291906 -1.0404271435 -0.091753308331 -0.021496117895 -1.0419149981 -0.092000452865
          -0.024050115866 -1.0420278141 -0.090283678724 -0.023801254158 -1.042522771 -0.089366259017
          -0.023800764308 -1.0438251784 -0.090338770931 -0.023920303435 -1.0450320819 -0.08859594857
          -0.022834387132 -1.0341663568 -0.090758626729 -0.022547850027 -1.0357108274 -0.091327999813
          -0.022497853539 -1.0368193261 -0.091825314723 -0.02222461252 -1.0386511047 -0.091194216914
          -0.022229241921 -1.0399126727 -0.092611854746 -0.023192370665 -1.0411324331 -0.092653502698
          -0.023237022826 -1.0419882826 -0.091270077488 -0.022964134081 -1.0431632885 -0.091544606395
          -0.022943808814 -1.044169932 -0.091068303834 -0.022532842604 -1.04521267 -0.090324940825
          -0.020959935241 -1.0345073084 -0.094329883097 -0.020410928077 -1.035029552 -0.093036152637
          -0.020123899456 -1.0371279694 -0.092819531801 -0.016979119417 -1.0380433941 -0.091395142319
          -0.022681200458 -1.0400884151 -0.09456578027 -0.019965267581 -1.041167852 -0.094703639676
          -0.025431480047 -1.0415875955 -0.091353077113 -0.022637859522 -1.0431621336 -0.092553369388
          -0.022706671754 -1.0434685061 -0.0928374401 -0.021952094836 -1.0453392708 -0.093676627518
          -0.01862087662 -1.0354918823 -0.093412831213 -0.018821797565 -1.0349968855 -0.093148878929
          -0.016583111347 -1.0370698938 -0.094119738625 -0.019798780378 -1.0374207198 -0.092558882152
          -0.019851279422 -1.0380107415 -0.09557096859 -0.020429253082 -1.0397137293 -0.094846729855
          -0.021065231583 -1.041296129 -0.092474049447 -0.023955042493 -1.043456076 -0.09422396033
          -0.021244411908 -1.0435574988 -0.092590471461 -0.02163442338 -1.0468195794 -0.09288878689
          -0.017574084371 -1.0288567225 -0.094628176913 -0.018637001753 -1.0322390418 -0.090466396129
          -0.018646412482 -1.0350576987 -0.09346121736 -0.018000220977 -1.0405858171 -0.098549136873
          -0.024420699712 -1.0339728479 -0.094435597251 -0.013243884015 -1.0351727473 -0.094466455949
          -0.020205485802 -1.0442948624 -0.098594832918 -0.019279738228 -1.0410906623 -0.093156339928
          -0.019466714933 -1.0408804184 -0.090066379226 -0.020401524596 -1.0396540662 -0.094020058448
          -0.029703912125 -1.0341594058 -0.082897218369 -0.031437257374 -1.0321197939 -0.083934411929
          -0.029531256118 -1.0350146509 -0.083697428039 -0.029857569253 -1.0362125692 -0.082832137317
          -0.030309781394 -1.0374534879 -0.082595228887 -0.030166567099 -1.0389751372 -0.082141483645
          -0.030316776151 -1.0402480728 -0.082326690853 -0.030988195373 -1.0408625916 -0.083396665268
          -0.028812463973 -1.0408901833 -0.083617717122 -0.031157764881 -1.0458204814 -0.082463415052
          -0.027635369765 -1.0333464546 -0.085590872929 -0.029364306429 -1.0344211928 -0.085137917645
          -0.029093936789 -1.035418641 -0.083864663377 -0.028775798141 -1.0365338518 -0.084547771556
          -0.028949907552 -1.0376359043 -0.083986021272 -0.0289666897 -1.0388812052 -0.084023095173
          -0.02913762376 -1.040309145 -0.084046556525 -0.028901785561 -1.0416368532 -0.083597898219
          -0.028367650407 -1.0431599481 -0.084751913884 -0.030444222834 -1.0446388256 -0.0852205601
          -0.029335237985 -1.0324427621 -0.084607818583 -0.028108963154 -1.0338473299 -0.086061136582
          -0.027771138261 -1.0349880048 -0.085969037512 -0.027610895577 -1.0365721247 -0.085855130715
          -0.027690069307 -1.0380754974 -0.08526693983 -0.027744686678 -1.0390719732 -0.08559234908
          -0.027791111626 -1.0404293851 -0.085519899203 -0.027347950781 -1.0412493054 -0.085505069928
          -0.027261437472 -1.0424988549 -0.085703752661 -0.026205465622 -1.0435775249 -0.084171549134
          -0.026395406111 -1.0320869667 -0.087518753401 -0.026046069174 -1.034428611 -0.08743017577
          -0.026649877969 -1.0355009397 -0.087075348218 -0.026583620794 -1.0368525746 -0.086975620056
          -0.026504811167 -1.0380067006 -0.086986388249 -0.026443351378 -1.0393237333 -0.086870634454
          -0.026492292307 -1.0405094659 -0.087086008505 -0.026252441527 -1.0416226198 -0.086895482395
          -0.026959451303 -1.0431699365 -0.086921006023 -0.026411384277 -1.042954963 -0.08714224835
          -0.024825300973 -1.0335049742 -0.089776481358 -0.025191928983 -1.0342287032 -0.08859443955
          -0.024852831968 -1.0353009909 -0.088888447676 -0.024941180387 -1.0366246439 -0.088582867784
          -0.025110974732 -1.0379016627 -0.088197012453 -0.025148130017 -1.0392798104 -0.088003430472
          -0.025306691544 -1.0403864435 -0.08817554793 -0.025564682607 -1.0414998091 -0.088706605372
          -0.0252289789 -1.0428445852 -0.088113238093 -0.02567548893 -1.0446233603 -0.089417206269
          -0.02361511658 -1.0326416183 -0.090333231703 -0.024101306763 -1.0338790774 -0.089913048149
          -0.024592442626 -1.0356204565 -0.089742583135 -0.02360158758 -1.0366507266 -0.089671820787
          -0.023627307522 -1.0379947013 -0.089632483228 -0.024163794243 -1.0391831723 -0.08947193525
          -0.02456276816 -1.0402675356 -0.089669217 -0.022914453895 -1.0419087096 -0.089417648477
          -0.023835627765 -1.0426318066 -0.089705113808 -0.024399873599 -1.0438765245 -0.090047079424
          -0.022513734518 -1.0321984622 -0.091634971292 -0.022094377258 -1.0339678446 -0.091663925784
          -0.022354606863 -1.035282326 -0.091373926367 -0.022711834702 -1.0369995608 -0.091927305558
          -0.021903340668 -1.0384498723 -0.091030171014 -0.023581598693 -1.0397757733 -0.091078016884
          -0.022759563001 -1.0407289376 -0.091925166542 -0.023071229561 -1.0414738185 -0.091216647925
          -0.023376207479 -1.0426313409 -0.091271789548 -0.022962848945 -1.0433027752 -0.091246077627
          -0.019626170839 -1.0322723981 -0.0946828526 -0.020515056412 -1.0340306056 -0.093339811264
          -0.020947503257 -1.0357095782 -0.092793932075 -0.021019368701 -1.0368259605 -0.09280972509
          -0.020900992054 -1.0384429688 -0.092854284533 -0.022084489005 -1.0396039071 -0.092975301203
          -0.022027414459 -1.0403850409 -0.092811754059 -0.022091861909 -1.0416729548 -0.092477212864
          -0.022417893898 -1.0425881151 -0.093001844312 -0.023295115452 -1.043285002 -0.094349444746
          -0.018411825847 -1.0314874735 -0.094891952393 -0.018203689445 -1.0342387969 -0.095118590509
          -0.018940390115 -1.0356452222 -0.094402303413 -0.018634113335 -1.0367517559 -0.093712703554
          -0.018190359858 -1.03949383 -0.093553011693 -0.0224476301 -1.0406257658 -0.093209384687
          -0.021829253667 -1.0403919117 -0.0933781581 -0.02156214879 -1.0417017295 -0.094035851822
          -0.022319337169 -1.0425679788 -0.094573923668 -0.021899512322 -1.0428264304 -0.094509839178
          -0.021026880719 -1.0309008613 -0.095066783275 -0.018318006476 -1.0340064992 -0.09650252636
          -0.014618413146 -1.0342980324 -0.095471133272 -0.017389155008 -1.0361914613 -0.094246496282
          -0.016992476646 -1.0407707023 -0.095735675032 -0.021546809065 -1.0412505381 -0.095795927741
          -0.020510452007 -1.0400445892 -0.093992679041 -0.023354260454 -1.0408215989 -0.095493518322
          -0.019670589648 -1.0427092584 -0.096111479349 -0.017067879799 -1.0419916614 -0.094618265401
          -0.032271002816 -1.0289548888 -0.083128152156 -0.030506194572 -1.0320400857 -0.082947926848
          -0.03011142203 -1.0334715175 -0.083310212312 -0.029870051636 -1.0351715408 -0.08323225983
          -0.030204879995 -1.0371272857 -0.081549228125 -0.029936190179 -1.0377619413 -0.082488273503
          -0.03051527269 -1.0389117374 -0.082882585515 -0.030167411592 -1.039628085 -0.083020646287
          -0.029577331133 -1.0404560665 -0.082517654684 -0.027764195157 -1.0399060791 -0.082574779402
          -0.028804730483 -1.03048904 -0.084798917153 -0.029132010316 -1.0328706573 -0.084091962799
          -0.029179511354 -1.0336495503 -0.084195360012 -0.029055591085 -1.0350605324 -0.084174782824
          -0.029016012042 -1.0365837806 -0.083826112824 -0.028964833004 -1.0377918692 -0.083860883576
          -0.028880552709 -1.0388938158 -0.083918662669 -0.028628307658 -1.039978071 -0.083761825711
          -0.028807900855 -1.0415044882 -0.083645744504 -0.029042664931 -1.0416637891 -0.084377135426
          -0.028253520709 -1.0312372517 -0.085501579502 -0.027919514489 -1.0327363421 -0.085557920319
          -0.027807362291 -1.033814429 -0.085650535379 -0.027802350707 -1.0351577141 -0.08564046002
          -0.02780437028 -1.0365775816 -0.085485785347 -0.027842207942 -1.0377908112 -0.085460381372
          -0.027655453883 -1.0388993947 -0.085506180042 -0.027582376853 -1.0401125807 -0.08546377437
          -0.027216403335 -1.0413615241 -0.085127535699 -0.027025238633 -1.0426720061 -0.084971393425
          -0.026407586055 -1.0310276143 -0.087211066764 -0.026866008355 -1.0326187879 -0.086989290826
          -0.026497076628 -1.0339386039 -0.087077410935 -0.026523669236 -1.0353561646 -0.087056564785
          -0.026365513446 -1.0363701222 -0.086807191457 -0.026400879934 -1.0377444303 -0.086850521376
          -0.026472080644 -1.0390063517 -0.086882765178 -0.026472522606 -1.0402132024 -0.086863318222
          -0.026260567333 -1.0412895159 -0.086697900619 -0.026546161461 -1.0424263636 -0.086698555524
          -0.025690294803 -1.031130548 -0.08806091752 -0.024791329809 -1.0327660999 -0.088903585089
          -0.02542136503 -1.0341243478 -0.088532340866 -0.025257854549 -1.0351902468 -0.088551900475
          -0.025285121693 -1.0365721667 -0.088335709155 -0.025238760164 -1.0378715869 -0.088341201085
          -0.025244197217 -1.0389071227 -0.088362889393 -0.025048147865 -1.0403602642 -0.088290449012
          -0.02565024568 -1.0414514278 -0.088544939047 -0.024764591946 -1.0423852074 -0.087623315134
          -0.023113953634 -1.031502467 -0.091091473397 -0.02362536665 -1.0325918714 -0.090326198557
          -0.023640995976 -1.0338539817 -0.090162650198 -0.023719722551 -1.035225988 -0.089956155721
          -0.023214151998 -1.0365276254 -0.089587398463 -0.024323757401 -1.0378220077 -0.089631377077
          -0.024478107234 -1.0388939981 -0.089832727274 -0.024245252874 -1.040159756 -0.089900347975
          -0.024139355996 -1.0413139903 -0.08984914583 -0.02510791192 -1.0422787085 -0.090687900325
          -0.022247444396 -1.0307727209 -0.091852111304 -0.022063685272 -1.0324381455 -0.091678615251
          -0.022163279312 -1.033988285 -0.09151642585 -0.02212789209 -1.0353149205 -0.091445665692
          -0.022101774444 -1.0367270314 -0.091123292163 -0.023552065382 -1.0377351344 -0.090902034255
          -0.023416801613 -1.0389728412 -0.091231314848 -0.023447157919 -1.0401686268 -0.091301710687
          -0.023752347401 -1.0411914751 -0.091575804431 -0.023312992466 -1.0419779955 -0.091372768374
          -0.020877202526 -1.0301874905 -0.092239071106 -0.021676388375 -1.032695304 -0.092761325915
          -0.020788921394 -1.0334804057 -0.092475391218 -0.020703950722 -1.0357095329 -0.09302740782
          -0.021058213977 -1.036920519 -0.093069569305 -0.022019621198 -1.0380246193 -0.092948154837
          -0.022334224714 -1.0394161573 -0.09299598105 -0.022258666203 -1.0400666313 -0.092634891104
          -0.021278622526 -1.0414611294 -0.092371210995 -0.022266103251 -1.0412794444 -0.091678135559
          -0.01906243073 -1.03109441 -0.09502948326 -0.019676071945 -1.0318447838 -0.093829329721
          -0.019311753402 -1.0345791472 -0.094727556443 -0.019636778333 -1.0355283614 -0.094100130723
          -0.019570096636 -1.0366364877 -0.094044859902 -0.021067251639 -1.0379753144 -0.093997971953
          -0.020931281334 -1.0392138411 -0.093799878608 -0.021368296388 -1.0408155593 -0.094356393899
          -0.020949292551 -1.0405528062 -0.093276142679 -0.021539696156 -1.0426041488 -0.094390540458
          -0.015903698178 -1.0291821397 -0.095092143523 -0.015940028086 -1.0323129228 -0.096347050993
          -0.016333758119 -1.034013937 -0.095037946973 -0.018801611465 -1.0356049795 -0.096285660401
          -0.015682422999 -1.0379889625 -0.09442638651 -0.022608287056 -1.0391510864 -0.094295760834
          -0.0193238014 -1.0391357338 -0.096050082958 -0.021982062155 -1.0399948443 -0.094776823329
          -0.022214212689 -1.040727792 -0.095892728742 -0.022263459935 -1.0400078395 -0.094607748465
          -0.029254389822 -1.0305632668 -0.083171143353 -0.031405941941 -1.0302815061 -0.083222898424
          -0.029922161458 -1.0325988982 -0.082613905323 -0.030982182869 -1.0328737899 -0.083039881729
          -0.030186881135 -1.0349144304 -0.082350257036 -0.02992469575 -1.0361841433 -0.082424258536
          -0.029827135986 -1.0367179861 -0.083111379601 -0.03066783065 -1.0388396417 -0.082376468506
          -0.029268415883 -1.0392524826 -0.082886790904 -0.031240445104 -1.041549876 -0.082651871611
          -0.029689214861 -1.0290483615 -0.084360520708 -0.02938877442 -1.0308603559 -0.084206533963
          -0.029184318916 -1.0320265954 -0.084379752965 -0.029212253458 -1.0334805474 -0.084183020099
          -0.029073460622 -1.0348592179 -0.084061147182 -0.028943067773 -1.0360852941 -0.084011151913
          -0.028927524602 -1.0371960665 -0.084078923364 -0.028662520351 -1.0382498891 -0.084125968988
          -0.028613923606 -1.0395600793 -0.083780667463 -0.028209940709 -1.0404698053 -0.083832642613
          -0.027888918754 -1.0294709268 -0.085647629895 -0.027781536987 -1.031055644 -0.085701011314
          -0.027858276838 -1.0323876055 -0.08578018965 -0.027776987336 -1.0337084475 -0.085667842221
          -0.027820295991 -1.0349938661 -0.085577145102 -0.02779796107 -1.036247918 -0.085446851097
          -0.027721478912 -1.0374248931 -0.085485545846 -0.027686599028 -1.0386283615 -0.085527121317
          -0.027658625376 -1.0396971443 -0.085373287474 -0.027477276347 -1.0407432482 -0.085188435601
          -0.026890914311 -1.0301025891 -0.086550160838 -0.026536083795 -1.031040901 -0.087157844321
          -0.026632475491 -1.0324945434 -0.087109721427 -0.026562583195 -1.0338805639 -0.087117532289
          -0.026556653378 -1.0350761489 -0.08690812343 -0.026554298559 -1.0362706523 -0.086843013919
          -0.026530740373 -1.0375362559 -0.086929435755 -0.026507409195 -1.0387090913 -0.086898916796
          -0.026744336066 -1.0397912089 -0.086891169875 -0.026176892413 -1.041242396 -0.08606071127
          -0.025616095227 -1.0294513078 -0.08883895238 -0.024750436406 -1.0310162876 -0.088780901893
          -0.025371487223 -1.0324864222 -0.088608270376 -0.025381468603 -1.0339001125 -0.088423312442
          -0.025280469458 -1.0351423214 -0.088365286006 -0.025231604295 -1.0364087997 -0.088314752497
          -0.025263092206 -1.0375891937 -0.088301895525 -0.025224758735 -1.0386757011 -0.088432146818
          -0.025960872581 -1.0397786323 -0.088439842696 -0.024976467292 -1.0406763156 -0.088431624212