<?xml version="1.0"?>
<VTKFile type="UnstructuredGrid" version="0.1" byte_order="LittleEndian" compressor="vtkZLibDataCompressor">
  <UnstructuredGrid>
    <FieldData>
      <DataArray type="Float64" Name="TIME" NumberOfTuples="1" format="ascii" RangeMin="0.9086943903" RangeMax="0.9086943903">
        0.9086943903
      </DataArray>
    </FieldData>
    <Piece NumberOfPoints="1000" NumberOfCells="0">
      <PointData>
        <DataArray type="Float64" Name="Damage" format="ascii" RangeMin="0" RangeMax="0.50406504065">
          0 0 0 0 0 0
          0 0 0 0 0 0.027932960894
          0 0 0 0 0 0
          0.027932960894 0 0 0.055084745763 0.071428571429 0.040345821326
          0.014164305949 0.012987012987 0.040345821326 0.071428571429 0.055084745763 0
          0 0.067669172932 0.11239193084 0.1074168798 0.037688442211 0.034562211982
          0.1074168798 0.11239193084 0.067669172932 0 0 0.074349442379
          0.16147308782 0.16834170854 0.12376237624 0.11286681716 0.16834170854 0.16147308782
          0.074349442379 0 0 0.084459459459 0.2 0.25806451613
          0.33860045147 0.39211618257 0.25806451613 0.2 0.084459459459 0
          0 0.093984962406 0.25360230548 0.36061381074 0.41959798995 0.46774193548
          0.36061381074 0.25360230548 0.093984962406 0 0 0.10593220339
          0.31493506494 0.40057636888 0.4447592068 0.49090909091 0.40057636888 0.31493506494
          0.10593220339 0 0 0.17318435754 0.3686440678 0.43984962406
          0.44981412639 0.5 0.43984962406 0.3686440678 0.17318435754 0
          0.016129032258 0.18791946309 0.36734693878 0.44343891403 0.46428571429 0.50406504065
          0.44343891403 0.36734693878 0.18791946309 0.008064516129 0 0
          0 0 0 0 0 0
          0 0 0 0.027906976744 0 0
          0 0 0 0 0.027906976744 0
          0 0.056338028169 0.072776280323 0.040669856459 0.014117647059 0.012931034483
          0.040669856459 0.072776280323 0.056338028169 0 0 0.06875
          0.11483253589 0.10828025478 0.0375782881 0.034416826004 0.10828025478 0.11483253589
          0.06875 0 0 0.074303405573 0.16235294118 0.16910229645
          0.12371134021 0.11257035647 0.16910229645 0.16235294118 0.074303405573 0
          0 0.084269662921 0.20043103448 0.25812619503 0.33771106942 0.39242685026
          0.25812619503 0.20043103448 0.084269662921 0 0 0.09375
          0.25358851675 0.36093418259 0.41962421712 0.46845124283 0.36093418259 0.25358851675
          0.09375 0 0 0.10563380282 0.3153638814 0.4019138756
          0.44470588235 0.49137931034 0.4019138756 0.3153638814 0.10563380282 0
          0 0.16744186047 0.36971830986 0.440625 0.44582043344 0.49719101124
          0.440625 0.36971830986 0.16744186047 0 0.013422818792 0.17877094972
          0.3686440678 0.44360902256 0.44981412639 0.49662162162 0.43984962406 0.3686440678
          0.17877094972 0.006711409396 0 0 0 0
          0 0 0 0 0 0
          0 0.024647887324 0 0 0 0
          0 0 0.024647887324 0 0 0.051212938005
          0.06875 0.038817005545 0.012635379061 0.011666666667 0.038817005545 0.06875
          0.051212938005 0 0 0.064593301435 0.10905730129 0.10491803279
          0.036858974359 0.034023668639 0.10491803279 0.10905730129 0.064593301435 0
          0 0.070588235294 0.15523465704 0.16506410256 0.12283464567 0.11271676301
          0.16506410256 0.15523465704 0.070588235294 0 0 0.081896551724
          0.19333333333 0.25443786982 0.33959537572 0.38985313752 0.25443786982 0.19333333333
          0.081896551724 0 0 0.093301435407 0.24768946396 0.35573770492
          0.41987179487 0.46449704142 0.35573770492 0.24768946396 0.093301435407 0
          0 0.10781671159 0.30833333333 0.39556377079 0.4440433213 0.48666666667
          0.39556377079 0.30833333333 0.10781671159 0 0 0.16197183099
          0.35579514825 0.43062200957 0.44470588235 0.49137931034 0.43062200957 0.35579514825
          0.16197183099 0 0 0.16101694915 0.3538961039 0.42939481268
          0.4447592068 0.49090909091 0.42939481268 0.3538961039 0.16101694915 0
          0 0 0 0 0 0
          0 0 0 0 0 0.025
          0 0 0 0 0 0
          0.025 0 0 0.05023923445 0.068391866913 0.039344262295
          0.012820512821 0.011834319527 0.039344262295 0.068391866913 0.05023923445 0
          0 0.063694267516 0.10819672131 0.10465116279 0.036984352774 0.034120734908
          0.10465116279 0.10819672131 0.063694267516 0 0 0.070981210856
          0.15544871795 0.16500711238 0.12290502793 0.11282051282 0.16500711238 0.15544871795
          0.070981210856 0 0 0.082217973231 0.19378698225 0.25459317585
          0.33974358974 0.38981042654 0.25459317585 0.19378698225 0.082217973231 0
          0 0.093418259023 0.24918032787 0.35610465116 0.41963015647 0.46456692913
          0.35610465116 0.24918032787 0.093418259023 0 0 0.10765550239
          0.30868761553 0.39508196721 0.44391025641 0.48668639053 0.39508196721 0.30868761553
          0.10765550239 0 0 0.1625 0.35645933014 0.43099787686
          0.44467640919 0.4913957935 0.43099787686 0.35645933014 0.1625 0
          0 0.16165413534 0.35446685879 0.42966751918 0.44472361809 0.49078341014
          0.42966751918 0.35446685879 0.16165413534 0 0 0
          0 0 0 0 0 0
          0 0 0 0.02786377709 0 0
          0 0 0 0 0.02786377709 0
          0 0.054117647059 0.070397111913 0.040064102564 0.014173228346 0.013005780347
          0.040064102564 0.070397111913 0.054117647059 0 0 0.066805845511
          0.11057692308 0.106685633 0.037709497207 0.034615384615 0.106685633 0.11057692308
          0.066805845511 0 0 0.074226804124 0.16062992126 0.16759776536
          0.12362637363 0.11292346299 0.16759776536 0.16062992126 0.074226804124 0
          0 0.084427767355 0.19942196532 0.25769230769 0.33877038896 0.39145496536
          0.25769230769 0.19942196532 0.084427767355 0 0 0.093945720251
          0.25320512821 0.35988620199 0.41899441341 0.46666666667 0.35988620199 0.25320512821
          0.093945720251 0 0 0.10588235294 0.31407942238 0.39903846154
          0.44409448819 0.48988439306 0.39903846154 0.31407942238 0.10588235294 0
          0 0.16718266254 0.36705882353 0.43841336117 0.44536082474 0.49530956848
          0.43841336117 0.36705882353 0.16718266254 0 0 0.16728624535
          0.36543909348 0.43718592965 0.44554455446 0.49435665914 0.43718592965 0.36543909348
          0.16728624535 0 0 0 0 0
          0 0 0 0 0 0
          0 0.025280898876 0 0 0 0
          0 0 0.025280898876 0 0 0.049568965517
          0.066666666667 0.038461538462 0.013005780347 0.012016021362 0.038461538462 0.066666666667
          0.049568965517 0 0 0.06309751434 0.1050295858 0.10367454068
          0.037179487179 0.034360189573 0.10367454068 0.1050295858 0.06309751434 0
          0 0.071294559099 0.15462427746 0.1641025641 0.12296110414 0.11316397229
          0.1641025641 0.15462427746 0.071294559099 0 0 0.082616179002
          0.19359145527 0.25473933649 0.34064665127 0.38930481283 0.25473933649 0.19359145527
          0.082616179002 0 0 0.093690248566 0.24852071006 0.35564304462
          0.41923076923 0.46327014218 0.35564304462 0.24852071006 0.093690248566 0
          0 0.10775862069 0.30833333333 0.39349112426 0.4436416185 0.48598130841
          0.39349112426 0.30833333333 0.10775862069 0 0 0.16292134831
          0.35560344828 0.43021032505 0.44465290807 0.49053356282 0.43021032505 0.35560344828
          0.16292134831 0 0 0.16216216216 0.35324675325 0.42857142857
          0.44469525959 0.48962655602 0.42857142857 0.35324675325 0.16216216216 0
          0 0 0 0 0 0
          0 0 0 0 0 0.025
          0 0 0 0 0 0
          0.025 0 0 0.05023923445 0.068391866913 0.039344262295
          0.012820512821 0.011834319527 0.039344262295 0.068391866913 0.05023923445 0
          0 0.063694267516 0.10819672131 0.10465116279 0.036984352774 0.034120734908
          0.10465116279 0.10819672131 0.063694267516 0 0 0.070981210856
          0.15544871795 0.16500711238 0.12290502793 0.11282051282 0.16500711238 0.15544871795
          0.070981210856 0 0 0.082217973231 0.19378698225 0.25459317585
          0.33974358974 0.38981042654 0.25459317585 0.19378698225 0.082217973231 0
          0 0.093418259023 0.24918032787 0.35610465116 0.41963015647 0.46456692913
          0.35610465116 0.24918032787 0.093418259023 0 0 0.10765550239
          0.30868761553 0.39508196721 0.44391025641 0.48668639053 0.39508196721 0.30868761553
          0.10765550239 0 0 0.1625 0.35645933014 0.43099787686
          0.44467640919 0.4913957935 0.43099787686 0.35645933014 0.1625 0
          0 0.16165413534 0.35446685879 0.42966751918 0.44472361809 0.49078341014
          0.42966751918 0.35446685879 0.16165413534 0 0 0
          0 0 0 0 0 0
          0 0 0 0.024647887324 0 0
          0 0 0 0 0.024647887324 0
          0 0.051212938005 0.06875 0.038817005545 0.012635379061 0.011666666667
          0.038817005545 0.06875 0.051212938005 0 0 0.064593301435
          0.10905730129 0.10491803279 0.036858974359 0.034023668639 0.10491803279 0.10905730129
          0.064593301435 0 0 0.070588235294 0.15523465704 0.16506410256
          0.12283464567 0.11271676301 0.16506410256 0.15523465704 0.070588235294 0
          0 0.081896551724 0.19333333333 0.25443786982 0.33959537572 0.38985313752
          0.25443786982 0.19333333333 0.081896551724 0 0 0.093301435407
          0.24768946396 0.35573770492 0.41987179487 0.46449704142 0.35573770492 0.24768946396
          0.093301435407 0 0 0.10781671159 0.30833333333 0.39556377079
          0.4440433213 0.48666666667 0.39556377079 0.30833333333 0.10781671159 0
          0 0.16197183099 0.35579514825 0.43062200957 0.44470588235 0.49137931034
          0.43062200957 0.35579514825 0.16197183099 0 0 0.16101694915
          0.3538961039 0.42939481268 0.4447592068 0.49090909091 0.42939481268 0.3538961039
          0.16101694915 0 0 0 0 0
          0 0 0 0 0 0
          0 0.027906976744 0 0 0 0
          0 0 0.027906976744 0 0 0.056338028169
          0.072776280323 0.040669856459 0.014117647059 0.012931034483 0.040669856459 0.072776280323
          0.056338028169 0 0 0.06875 0.11483253589 0.10828025478
          0.0375782881 0.034416826004 0.10828025478 0.11483253589 0.06875 0
          0 0.074303405573 0.16235294118 0.16910229645 0.12371134021 0.11257035647
          0.16910229645 0.16235294118 0.074303405573 0 0 0.084269662921
          0.20043103448 0.25812619503 0.33771106942 0.39242685026 0.25812619503 0.20043103448
          0.084269662921 0 0 0.09375 0.25358851675 0.36093418259
          0.41962421712 0.46845124283 0.36093418259 0.25358851675 0.09375 0
          0 0.10563380282 0.3153638814 0.4019138756 0.44470588235 0.49137931034
          0.4019138756 0.3153638814 0.10563380282 0 0 0.16744186047
          0.36971830986 0.440625 0.44582043344 0.49719101124 0.440625 0.36971830986
          0.16744186047 0 0.006711409396 0.16759776536 0.3686440678 0.43984962406
          0.44609665428 0.49662162162 0.43984962406 0.3686440678 0.17318435754 0.006711409396
          0 0 0 0 0 0
          0 0 0 0 0 0.027932960894
          0 0 0 0 0 0
          0.027932960894 0 0 0.055084745763 0.071428571429 0.040345821326
          0.014164305949 0.012987012987 0.040345821326 0.071428571429 0.055084745763 0
          0 0.067669172932 0.11239193084 0.1074168798 0.037688442211 0.034562211982
          0.1074168798 0.11239193084 0.067669172932 0 0 0.074349442379
          0.16147308782 0.16834170854 0.12376237624 0.11286681716 0.16834170854 0.16147308782
          0.074349442379 0 0 0.084459459459 0.2 0.25806451613
          0.33860045147 0.39211618257 0.25806451613 0.2 0.084459459459 0
          0 0.093984962406 0.25360230548 0.36061381074 0.41959798995 0.46774193548
          0.36061381074 0.25360230548 0.093984962406 0 0 0.10593220339
          0.31493506494 0.40057636888 0.4447592068 0.49090909091 0.40057636888 0.31493506494
          0.10593220339 0 0 0.16759776536 0.3686440678 0.43984962406
          0.44981412639 0.5 0.43984962406 0.3686440678 0.16759776536 0.006711409396
          0.016129032258 0.1744966443 0.36734693878 0.44343891403 0.45535714286 0.50406504065
          0.44343891403 0.36734693878 0.18120805369 0.024193548387
        </DataArray>
        <DataArray type="Float64" Name="Displacement" NumberOfComponents="3" format="ascii" RangeMin="0.1981919282" RangeMax="1.3551498448">
          0.19440337358 0.68300548663 -0.54836267194 0.14355950638 0.75288507966 -0.4973102394
          0.10057818123 0.82172602392 -0.44619847334 0.057747021891 0.8942656158 -0.39091192779
          0.023956053268 0.95803807316 -0.34033955614 -0.033769373066 1.0386774128 -0.28270536536
          -0.077002638939 1.1066172572 -0.23107738595 -0.11849124649 1.1799030902 -0.17566014784
          -0.16740273638 1.2548489723 -0.12089639609 -0.20977002401 1.3182242532 -0.071485165644
          0.11734338525 0.56540277303 -0.4619128019 0.075751784936 0.63717609511 -0.41051491294
          0.032101361527 0.71182638767 -0.35499305122 -0.0088244967927 0.7819929555 -0.30349857846
          -0.056611206869 0.85327467622 -0.25002150635 -0.10322148591 0.92555859856 -0.19557918189
          -0.14568758321 0.9953893535 -0.14239504019 -0.19133516294 1.0671176537 -0.088666523039
          -0.23540951971 1.139626892 -0.034793647504 -0.2784641675 1.2085817978 0.019755674523
          0.04948260659 0.4536935555 -0.37377879016 0.0070351442636 0.52572755507 -0.32179549656
          -0.035330144347 0.59982857329 -0.2692655061 -0.080425293499 0.67049114167 -0.2152068972
          -0.12447241326 0.74105185149 -0.16327966458 -0.17014854518 0.81225829241 -0.10763495889
          -0.21439470594 0.88288376496 -0.055036537851 -0.25866425 0.95419805661 -0.0034550440967
          -0.30253509772 1.0259750693 0.053965331538 -0.35059487365 1.0981776082 0.10828278427
          -0.017039868781 0.34636712244 -0.28503153804 -0.062303179449 0.41543053884 -0.2358070316
          -0.10458245974 0.48577114142 -0.18244125917 -0.14891953379 0.55824394858 -0.1288138438
          -0.19320027055 0.62860606786 -0.075893847188 -0.23850055656 0.70063908447 -0.022127329996
          -0.28238296879 0.77150558471 0.032273829935 -0.32576586865 0.84268945452 0.085252611519
          -0.37209027887 0.91491475519 0.13768321513 -0.42219171072 0.98428269654 0.19094294868
          -0.085802424468 0.23229111903 -0.19980411509 -0.13021255348 0.30364611408 -0.1470304212
          -0.17352216501 0.37506774545 -0.095122185311 -0.21824111148 0.44666729269 -0.042494599546
          -0.26198368803 0.51785851801 0.0098448672915 -0.30681682522 0.58926299042 0.063886904667
          -0.35224920619 0.65933745839 0.11836204778 -0.39682862283 0.72992969107 0.17175512767
          -0.44258988317 0.80145615967 0.22565777157 -0.48886348921 0.87260001711 0.2775534333
          -0.15300127883 0.12352622736 -0.11336135929 -0.1994618064 0.19116888751 -0.059417178829
          -0.24243332117 0.26290271999 -0.0070441070258 -0.28713354737 0.33547349153 0.045578219404
          -0.33303863982 0.40695693344 0.096018210946 -0.37626811886 0.47795904104 0.1515480657
          -0.42213295496 0.54723434038 0.20549855031 -0.46594747157 0.61786629034 0.25918308024
          -0.51101452092 0.689059461 0.31346776849 -0.55847508449 0.76148491857 0.36139326531
          -0.2241163286 0.012948096486 -0.022130089671 -0.26627182838 0.083447752779 0.027588735079
          -0.31038156321 0.15293192311 0.080060347934 -0.35698421201 0.22411845314 0.1342401485
          -0.40027895703 0.29544196778 0.18501525639 -0.44644037128 0.36056520992 0.23877979049
          -0.492871627 0.43363171168 0.29262253731 -0.53598113762 0.50508291571 0.34498379494
          -0.5817953684 0.57721258335 0.39719358854 -0.63119752821 0.64907227766 0.45093764666
          -0.29047201198 -0.1029762443 0.06104766012 -0.33508622602 -0.028219196785 0.11478054
          -0.37904168068 0.042815933016 0.16669186985 -0.42442891803 0.11367598155 0.21730081116
          -0.467031086 0.18431385932 0.27235158029 -0.51469814454 0.25313327678 0.32598435027
          -0.55859459658 0.32584575103 0.37864268742 -0.6040527903 0.39535291614 0.43144851667
          -0.6508581543 0.4660270918 0.48485560549 -0.69181582391 0.53734862374 0.53868080835
          -0.35862861324 -0.21397784859 0.15169648151 -0.40360973836 -0.14248195358 0.20489642412
          -0.44844818586 -0.069558527124 0.25429308986 -0.49100265548 0.0042085265257 0.30575523717
          -0.53828717986 0.072978742048 0.3599381681 -0.58533109407 0.13903856128 0.41569222184
          -0.62943870511 0.21355301931 0.46388309281 -0.67226107895 0.28419633582 0.5179053611
          -0.71719722587 0.35272328816 0.57566441999 -0.75953354266 0.42584017907 0.6267023323
          -0.42873186239 -0.31914136783 0.24495275919 -0.4745276146 -0.24978844401 0.27782445512
          -0.51437157819 -0.17336297243 0.34305367843 -0.5613086274 -0.1103386609 0.39601280735
          -0.61291657499 -0.037853442566 0.44764061867 -0.64789216717 0.044982182688 0.50574391209
          -0.69967588267 0.10179840403 0.56239410026 -0.74412421693 0.17070905342 0.60662822552
          -0.78078139827 0.2503163863 0.65582322901 -0.83437008681 0.31217660607 0.71462855693
          0.24557689868 0.59477489946 -0.61996448285 0.21041365247 0.66737781811 -0.56590745435
          0.15670109004 0.7367951429 -0.51029199437 0.11214190881 0.81001307292 -0.45633171917
          0.069366945459 0.87930526915 -0.4039863359 0.024551794283 0.95058637637 -0.35079007495
          -0.021493942944 1.0221211442 -0.29662451805 -0.063619853079 1.0941684718 -0.24276231236
          -0.10845990572 1.1614514419 -0.1951928422 -0.15175619375 1.2346379262 -0.13493232089
          0.17860773128 0.4829507499 -0.52921830195 0.13354904338 0.5565593708 -0.47861663796
          0.089005133981 0.62661603835 -0.42353671906 0.043797242351 0.69713943289 -0.37067999892
          -0.00051910801272 0.76843161513 -0.31718726336 -0.044853498074 0.83920183588 -0.26367797169
          -0.089455997625 0.91177420866 -0.21022731995 -0.13406701019 0.98140267002 -0.15733896845
          -0.17912467893 1.0522467954 -0.10528452094 -0.22198513163 1.1226202891 -0.049669428004
          0.10786447609 0.37258481022 -0.44312009816 0.064996661826 0.44299782533 -0.3897404186
          0.020015401279 0.51327659672 -0.33671154101 -0.024343996644 0.58468020277 -0.2837712432
          -0.068796453977 0.65594595147 -0.2304794873 -0.11276188953 0.72701802532 -0.17630121302
          -0.15795279021 0.79828221384 -0.12286752857 -0.20252570842 0.86909903473 -0.069514665992
          -0.24702304213 0.94008751514 -0.016665999674 -0.29321106138 1.0122541322 0.035962381255
          0.039067592811 0.25826871789 -0.35526615258 -0.0049480928582 0.33138571984 -0.30232256784
          -0.048551721566 0.40220467352 -0.24884536892 -0.093020589277 0.47281782794 -0.19619162676
          -0.13742648757 0.54463314897 -0.14328415031 -0.18228026799 0.61544870801 -0.089441353544
          -0.22659956318 0.68675331736 -0.035276270308 -0.27225007753 0.75680128386 0.017552777042
          -0.3163478218 0.82868919058 0.071377199212 -0.36030712205 0.89962700805 0.12523049601
          -0.02842270552 0.147470619 -0.26917681791 -0.073418440616 0.21912680212 -0.21528358402
          -0.11766801286 0.29021994983 -0.16193373084 -0.16199975912 0.36160705957 -0.10871433498
          -0.20655684016 0.43263736994 -0.056444547642 -0.25183665579 0.50348414535 -0.0020413284168
          -0.29656911157 0.57356412 0.051642018815 -0.34085343862 0.64489072316 0.10466466025
          -0.3852286393 0.71647869904 0.15754998976 -0.43051327457 0.78745600924 0.21112292942
          -0.09801658528 0.03780863027 -0.18024578933 -0.14232965721 0.10803608706 -0.12733204738
          -0.18628395397 0.17873695004 -0.074365359551 -0.23107462036 0.25048889702 -0.022122427845
          -0.27465964976 0.32128461067 0.03214037386 -0.32154300779 0.38963383502 0.085129767243
          -0.36600708678 0.46159608189 0.13815793611 -0.40992973828 0.53334845595 0.19150893289
          -0.45533494775 0.60457606539 0.2450441781 -0.50076558687 0.67564449828 0.29733210661
          -0.16718015137 -0.073596609963 -0.092563439843 -0.21144631913 -0.002600923058 -0.03898369872
          -0.25530721309 0.066449991482 0.012990121246 -0.29910010917 0.13798384342 0.064981038976
          -0.34221198232 0.2098777657 0.11834955697 -0.38945905576 0.27785435333 0.17095629094
          -0.43423474945 0.34952097022 0.22501735706 -0.47911157003 0.42096193155 0.27907874585
          -0.52444787881 0.49250444003 0.33174147499 -0.56944217811 0.56369143166 0.384950698
          -0.23457149875 -0.18569407582 -0.0032883790605 -0.27908028893 -0.11388904093 0.049014808053
          -0.32269316266 -0.04226685329 0.10058266487 -0.36736592905 0.028543421349 0.15355399359
          -0.41107623971 0.099961373583 0.20520529754 -0.45973211962 0.16751411441 0.2585696529
          -0.50419923798 0.23824061626 0.31211495933 -0.54948499013 0.30891091402 0.36528698581
          -0.59468992919 0.37972528633 0.41886344329 -0.63710616892 0.45082044923 0.47252439956
          -0.30327262107 -0.2955562856 0.085678794199 -0.34778778227 -0.22458957904 0.13513599043
          -0.39082523066 -0.15273303537 0.18870063304 -0.43430945801 -0.082258797771 0.24058763421
          -0.47662896319 -0.010130688428 0.29389708612 -0.52940980907 0.053486503026 0.34460558003
          -0.5728289564 0.12560831437 0.39907987145 -0.61873684749 0.19775917478 0.45222680555
          -0.66211632275 0.2690189723 0.50605052983 -0.70769785446 0.3393803353 0.55811567992
          -0.37344149812 -0.40248543752 0.16969795037 -0.41672193131 -0.33745539654 0.22357643764
          -0.4603567459 -0.26673054508 0.27729518648 -0.50227749873 -0.18924552101 0.32960975159
          -0.53799898071 -0.12190000254 0.37982510834 -0.5973320081 -0.056840780098 0.43081959791
          -0.64285842316 0.015700952228 0.4866195179 -0.6839534555 0.088018250656 0.5413647426
          -0.73302215944 0.15497110103 0.59498865653 -0.76979573392 0.23430556464 0.64046249617
          0.30316759122 0.50815406002 -0.68629584515 0.25791430943 0.58156628247 -0.63159714534
          0.21412784219 0.65233193295 -0.57878864115 0.16881094327 0.72393754881 -0.52390096183
          0.12555805335 0.79434665196 -0.4711200797 0.079836589452 0.86504845745 -0.4177683385
          0.035431469008 0.93693530835 -0.36394281426 -0.0083108377461 1.0073012394 -0.3103654741
          -0.05354709359 1.0807779063 -0.25600201333 -0.097041667908 1.1510177457 -0.20263681053
          0.2328177701 0.39762450099 -0.5974388777 0.18953755975 0.46896722332 -0.54407575455
          0.14483614382 0.54003735225 -0.49139868395 0.099981080041 0.61124475367 -0.43771389596
          0.056101129293 0.68236830406 -0.38462883027 0.011434323929 0.75415308098 -0.33063241663
          -0.032491267285 0.82503992082 -0.27683036177 -0.077208734243 0.89574540271 -0.22420102284
          -0.12228503309 0.96706838518 -0.17083510564 -0.16723857196 1.0380638501 -0.11775485196
          0.16397633041 0.28650963547 -0.51072265814 0.11947509878 0.3559336152 -0.45818616725
          0.076052169977 0.42857040916 -0.40399010507 0.03169931861 0.49940799089 -0.35101086477
          -0.012309862996 0.57064695834 -0.29757056932 -0.056879946966 0.64154687438 -0.24449583519
          -0.10203269822 0.71318934966 -0.19043242293 -0.1465050771 0.78408751174 -0.13695904719
          -0.18984551006 0.85579155069 -0.082809443039 -0.2368645501 0.92765757111 -0.030796698032
          0.095767851607 0.17464079709 -0.42149033986 0.051352675884 0.24488380375 -0.36915191041
          0.0077545232447 0.316834381 -0.31689354023 -0.037396364941 0.38832311239 -0.26327355624
          -0.081504957547 0.45902194887 -0.21073575305 -0.12592360658 0.5300567995 -0.15699273617
          -0.17151813369 0.60086141361 -0.10308087356 -0.21539720379 0.67170494943 -0.050252700987
          -0.26035224627 0.74299042095 0.0046302263249 -0.30509169856 0.81323313393 0.057601958207
          0.02673793492 0.064211807075 -0.33502297299 -0.017300333706 0.13402874436 -0.28152637057
          -0.061532109411 0.20515629803 -0.2298481746 -0.10607294957 0.27603753187 -0.17628599889
          -0.15031066142 0.34720058559 -0.12396683169 -0.19520663612 0.41811906918 -0.069822511119
          -0.23981622251 0.48887477013 -0.016002048035 -0.28454595747 0.55989133432 0.037485715914
          -0.32962645458 0.63057686303 0.091326835217 -0.3749708548 0.7027552979 0.14330486859
          -0.042386000423 -0.049378121411 -0.24617544792 -0.086370200453 0.022414183641 -0.19459273312
          -0.13077759416 0.093526485621 -0.14209914807 -0.17492689987 0.16474472647 -0.0891014199
          -0.21902416102 0.23528054325 -0.035880061794 -0.26465731513 0.30451859503 0.017822410989
          -0.30934016884 0.37673260561 0.070971780345 -0.35439743438 0.44806873932 0.1243677218
          -0.39876654275 0.51910000434 0.17792106827 -0.44264111651 0.58954734843 0.23270708829
          -0.11111817428 -0.15937627234 -0.15822979616 -0.15505284765 -0.088769518404 -0.10720690983
          -0.19903766602 -0.018001537506 -0.054551819273 -0.24268768753 0.053928895273 -0.0010832023529
          -0.28705856441 0.12497282239 0.051798486351 -0.33393962916 0.19337357533 0.10442329977
          -0.37944371933 0.26390516526 0.15733475441 -0.42322020829 0.33604221533 0.21097005385
          -0.46735228932 0.40724284026 0.26527344584 -0.51289239084 0.47833662271 0.31827101356
          -0.17946049939 -0.26986905092 -0.071079101653 -0.22370117207 -0.19927033157 -0.018788233697
          -0.26659646334 -0.12931525801 0.033569789096 -0.31056818337 -0.0561783261 0.086322398669
          -0.35406228536 0.014143823481 0.13878755933 -0.40370661548 0.080748464706 0.19074140916
          -0.44845004056 0.15201474451 0.24411329879 -0.49160831647 0.2235080035 0.29773315411
          -0.53740287707 0.29601125805 0.35202336962 -0.58240142051 0.36588416148 0.40547166515
          -0.24830265412 -0.38129581839 0.017839474336 -0.29160676343 -0.30958155133 0.069558988101
          -0.33580031717 -0.23943670623 0.12039222217 -0.37897509579 -0.16821589673 0.17321615218
          -0.42397670478 -0.09764204228 0.22545029804 -0.47221476927 -0.029488797796 0.28034282893
          -0.51627669043 0.041687330494 0.33259137081 -0.56058186633 0.11352926066 0.38553691499
          -0.60660100518 0.18323138383 0.43858473007 -0.65026366491 0.25513164658 0.49135110996
          -0.31612371679 -0.49033410705 0.10360563413 -0.3602044319 -0.42135991711 0.15696715176
          -0.40147931638 -0.3474382091 0.20958337395 -0.44430548933 -0.27619973791 0.25928994349
          -0.49038910051 -0.20917385118 0.31456646153 -0.54016578215 -0.1408917169 0.37075417264
          -0.58521343742 -0.07062372146 0.41593481606 -0.63049906916 0.00038802617008 0.47063400103
          -0.67270636283 0.073075752905 0.5261251561 -0.71809029674 0.14560740084 0.57674785436
          0.35822115811 0.42487692244 -0.75241360386 0.31302906902 0.49468103937 -0.69741499838
          0.26826660209 0.56602435914 -0.64529630469 0.22576023393 0.63851893004 -0.5914342083
          0.18167533567 0.70957044756 -0.5382500975 0.13672931606 0.78010148041 -0.48455623465
          0.091895718186 0.85085406237 -0.43172438197 0.047513122256 0.92350026221 -0.37571424121
          0.0031681189492 0.99308826809 -0.3233341754 -0.041095314764 1.0653604453 -0.26567561145
          0.29237017814 0.31375015498 -0.66579261465 0.24537670724 0.3842711405 -0.61167488385
          0.20088399034 0.45516634376 -0.55864870209 0.15660043025 0.52689597304 -0.50507809033
          0.11228391394 0.59724672388 -0.4516817307 0.06809415475 0.66821148123 -0.39851657283
          0.023411154648 0.73940032873 -0.34455506732 -0.021237416342 0.81072207949 -0.29103965899
          -0.066161415412 0.88171020718 -0.23817253759 -0.1115341777 0.95144463923 -0.18698408208
          0.21995404119 0.20133747539 -0.57705946544 0.17607035851 0.27232560338 -0.52411271927
          0.131876373 0.34269708706 -0.4718270039 0.087778587371 0.41416835554 -0.41834722886
          0.043555583711 0.48540625661 -0.36496483515 -0.00089120603407 0.5563852063 -0.31150865026
          -0.045440381771 0.62754749024 -0.25811998028 -0.090106258628 0.69887616489 -0.20383181505
          -0.13559266193 0.76962197752 -0.15070464873 -0.18004976043 0.84043636889 -0.09754356269
          0.15100093199 0.089100468039 -0.48964268126 0.10703111519 0.16054272591 -0.43679030206
          0.063184267023 0.23132704828 -0.38419472148 0.018823430368 0.30228368152 -0.3310671855
          -0.02540945123 0.37354197214 -0.27794499355 -0.069985328483 0.44465116556 -0.22438861282
          -0.11474221998 0.51572797577 -0.17072532642 -0.16007107829 0.58648161737 -0.11727765928
          -0.20441759736 0.65783334317 -0.0634085562 -0.24850033869 0.7286966356 -0.0093426645373
          0.082158741448 -0.022569458425 -0.40247656114 0.038692245875 0.04860983989 -0.35009258255
          -0.0059507542421 0.11956607052 -0.29712030258 -0.050228182501 0.19091261614 -0.24361461508
          -0.09440800931 0.26175428476 -0.19097248927 -0.13912587232 0.33282565295 -0.13731354137
          -0.18408436232 0.40357187089 -0.083453760464 -0.22863045966 0.47490726324 -0.030218149635
          -0.27316019795 0.54564461235 0.0232458457 -0.31749889685 0.61733862052 0.077365654601
          0.013938574175 -0.13319211551 -0.31450300794 -0.030342153297 -0.062224684911 -0.26251637658
          -0.074718581687 0.0082060427251 -0.20954151716 -0.11881335249 0.079271176568 -0.15644119884
          -0.16223970335 0.15053049263 -0.10319807471 -0.20860721954 0.22023775416 -0.050228816242
          -0.25335349398 0.29171185548 0.0033804004912 -0.29785833351 0.36276591996 0.057075019509
          -0.34258662513 0.43396102028 0.11010503757 -0.38700108997 0.50434601125 0.16463717502
          -0.054856962817 -0.24477036896 -0.2258043769 -0.098689008388 -0.17382198381 -0.17398722897