<?xml version="1.0"?>
<VTKFile type="UnstructuredGrid" version="0.1" byte_order="LittleEndian" compressor="vtkZLibDataCompressor">
  <UnstructuredGrid>
    <FieldData>
      <DataArray type="Float64" Name="TIME" NumberOfTuples="1" format="ascii" RangeMin="0.82814144562" RangeMax="0.82814144562">
        0.82814144562
      </DataArray>
    </FieldData>
    <Piece NumberOfPoints="1000" NumberOfCells="0">
      <PointData>
        <DataArray type="Float64" Name="Damage" format="ascii" RangeMin="0" RangeMax="0.50406504065">
          0 0 0 0 0 0
          0 0 0 0 0 0.027932960894
          0 0 0 0 0 0
          0.027932960894 0 0 0.055084745763 0.071428571429 0.040345821326
          0.014164305949 0.012987012987 0.040345821326 0.071428571429 0.055084745763 0
          0 0.067669172932 0.11239193084 0.1074168798 0.037688442211 0.034562211982
          0.1074168798 0.11239193084 0.067669172932 0 0 0.074349442379
          0.16147308782 0.16834170854 0.12376237624 0.11286681716 0.16834170854 0.16147308782
          0.074349442379 0 0 0.084459459459 0.2 0.25806451613
          0.33860045147 0.39211618257 0.25806451613 0.2 0.084459459459 0
          0 0.093984962406 0.25360230548 0.36061381074 0.41959798995 0.46774193548
          0.36061381074 0.25360230548 0.093984962406 0 0 0.10593220339
          0.31493506494 0.40057636888 0.4447592068 0.49090909091 0.40057636888 0.31493506494
          0.10593220339 0 0 0.17318435754 0.3686440678 0.43984962406
          0.44981412639 0.5 0.43984962406 0.3686440678 0.17318435754 0
          0.016129032258 0.18791946309 0.36734693878 0.44343891403 0.45535714286 0.50406504065
          0.44343891403 0.36734693878 0.18791946309 0.008064516129 0 0
          0 0 0 0 0 0
          0 0 0 0.027906976744 0 0
          0 0 0 0 0.027906976744 0
          0 0.056338028169 0.072776280323 0.040669856459 0.014117647059 0.012931034483
          0.040669856459 0.072776280323 0.056338028169 0 0 0.06875
          0.11483253589 0.10828025478 0.0375782881 0.034416826004 0.10828025478 0.11483253589
          0.06875 0 0 0.074303405573 0.16235294118 0.16910229645
          0.12371134021 0.11257035647 0.16910229645 0.16235294118 0.074303405573 0
          0 0.084269662921 0.20043103448 0.25812619503 0.33771106942 0.39242685026
          0.25812619503 0.20043103448 0.084269662921 0 0 0.09375
          0.25358851675 0.36093418259 0.41962421712 0.46845124283 0.36093418259 0.25358851675
          0.09375 0 0 0.10563380282 0.3153638814 0.4019138756
          0.44470588235 0.49137931034 0.4019138756 0.3153638814 0.10563380282 0
          0 0.16744186047 0.36971830986 0.440625 0.44582043344 0.49719101124
          0.440625 0.36971830986 0.16744186047 0 0.013422818792 0.17877094972
          0.3686440678 0.43984962406 0.44609665428 0.49662162162 0.43984962406 0.3686440678
          0.17318435754 0 0 0 0 0
          0 0 0 0 0 0
          0 0.024647887324 0 0 0 0
          0 0 0.024647887324 0 0 0.051212938005
          0.06875 0.038817005545 0.012635379061 0.011666666667 0.038817005545 0.06875
          0.051212938005 0 0 0.064593301435 0.10905730129 0.10491803279
          0.036858974359 0.034023668639 0.10491803279 0.10905730129 0.064593301435 0
          0 0.070588235294 0.15523465704 0.16506410256 0.12283464567 0.11271676301
          0.16506410256 0.15523465704 0.070588235294 0 0 0.081896551724
          0.19333333333 0.25443786982 0.33959537572 0.38985313752 0.25443786982 0.19333333333
          0.081896551724 0 0 0.093301435407 0.24768946396 0.35573770492
          0.41987179487 0.46449704142 0.35573770492 0.24768946396 0.093301435407 0
          0 0.10781671159 0.30833333333 0.39556377079 0.4440433213 0.48666666667
          0.39556377079 0.30833333333 0.10781671159 0 0 0.16197183099
          0.35579514825 0.43062200957 0.44470588235 0.49137931034 0.43062200957 0.35579514825
          0.16197183099 0 0 0.16101694915 0.3538961039 0.42939481268
          0.4447592068 0.49090909091 0.42939481268 0.3538961039 0.16101694915 0
          0 0 0 0 0 0
          0 0 0 0 0 0.025
          0 0 0 0 0 0
          0.025 0 0 0.05023923445 0.068391866913 0.039344262295
          0.012820512821 0.011834319527 0.039344262295 0.068391866913 0.05023923445 0
          0 0.063694267516 0.10819672131 0.10465116279 0.036984352774 0.034120734908
          0.10465116279 0.10819672131 0.063694267516 0 0 0.070981210856
          0.15544871795 0.16500711238 0.12290502793 0.11282051282 0.16500711238 0.15544871795
          0.070981210856 0 0 0.082217973231 0.19378698225 0.25459317585
          0.33974358974 0.38981042654 0.25459317585 0.19378698225 0.082217973231 0
          0 0.093418259023 0.24918032787 0.35610465116 0.41963015647 0.46456692913
          0.35610465116 0.24918032787 0.093418259023 0 0 0.10765550239
          0.30868761553 0.39508196721 0.44391025641 0.48668639053 0.39508196721 0.30868761553
          0.10765550239 0 0 0.1625 0.35645933014 0.43099787686
          0.44467640919 0.4913957935 0.43099787686 0.35645933014 0.1625 0
          0 0.16165413534 0.35446685879 0.42966751918 0.44472361809 0.49078341014
          0.42966751918 0.35446685879 0.16165413534 0 0 0
          0 0 0 0 0 0
          0 0 0 0.02786377709 0 0
          0 0 0 0 0.02786377709 0
          0 0.054117647059 0.070397111913 0.040064102564 0.014173228346 0.013005780347
          0.040064102564 0.070397111913 0.054117647059 0 0 0.066805845511
          0.11057692308 0.106685633 0.037709497207 0.034615384615 0.106685633 0.11057692308
          0.066805845511 0 0 0.074226804124 0.16062992126 0.16759776536
          0.12362637363 0.11292346299 0.16759776536 0.16062992126 0.074226804124 0
          0 0.084427767355 0.19942196532 0.25769230769 0.33877038896 0.39145496536
          0.25769230769 0.19942196532 0.084427767355 0 0 0.093945720251
          0.25320512821 0.35988620199 0.41899441341 0.46666666667 0.35988620199 0.25320512821
          0.093945720251 0 0 0.10588235294 0.31407942238 0.39903846154
          0.44409448819 0.48988439306 0.39903846154 0.31407942238 0.10588235294 0
          0 0.16718266254 0.36705882353 0.43841336117 0.44536082474 0.49530956848
          0.43841336117 0.36705882353 0.16718266254 0 0 0.16728624535
          0.36543909348 0.43718592965 0.44554455446 0.49435665914 0.43718592965 0.36543909348
          0.16728624535 0 0 0 0 0
          0 0 0 0 0 0
          0 0.025280898876 0 0 0 0
          0 0 0.025280898876 0 0 0.049568965517
          0.066666666667 0.038461538462 0.013005780347 0.012016021362 0.038461538462 0.066666666667
          0.049568965517 0 0 0.06309751434 0.1050295858 0.10367454068
          0.037179487179 0.034360189573 0.10367454068 0.1050295858 0.06309751434 0
          0 0.071294559099 0.15462427746 0.1641025641 0.12296110414 0.11316397229
          0.1641025641 0.15462427746 0.071294559099 0 0 0.082616179002
          0.19359145527 0.25473933649 0.34064665127 0.38930481283 0.25473933649 0.19359145527
          0.082616179002 0 0 0.093690248566 0.24852071006 0.35564304462
          0.41923076923 0.46327014218 0.35564304462 0.24852071006 0.093690248566 0
          0 0.10775862069 0.30833333333 0.39349112426 0.4436416185 0.48598130841
          0.39349112426 0.30833333333 0.10775862069 0 0 0.16292134831
          0.35560344828 0.43021032505 0.44465290807 0.49053356282 0.43021032505 0.35560344828
          0.16292134831 0 0 0.16216216216 0.35324675325 0.42857142857
          0.44469525959 0.48962655602 0.42857142857 0.35324675325 0.16216216216 0
          0 0 0 0 0 0
          0 0 0 0 0 0.025
          0 0 0 0 0 0
          0.025 0 0 0.05023923445 0.068391866913 0.039344262295
          0.012820512821 0.011834319527 0.039344262295 0.068391866913 0.05023923445 0
          0 0.063694267516 0.10819672131 0.10465116279 0.036984352774 0.034120734908
          0.10465116279 0.10819672131 0.063694267516 0 0 0.070981210856
          0.15544871795 0.16500711238 0.12290502793 0.11282051282 0.16500711238 0.15544871795
          0.070981210856 0 0 0.082217973231 0.19378698225 0.25459317585
          0.33974358974 0.38981042654 0.25459317585 0.19378698225 0.082217973231 0
          0 0.093418259023 0.24918032787 0.35610465116 0.41963015647 0.46456692913
          0.35610465116 0.24918032787 0.093418259023 0 0 0.10765550239
          0.30868761553 0.39508196721 0.44391025641 0.48668639053 0.39508196721 0.30868761553
          0.10765550239 0 0 0.1625 0.35645933014 0.43099787686
          0.44467640919 0.4913957935 0.43099787686 0.35645933014 0.1625 0
          0 0.16165413534 0.35446685879 0.42966751918 0.44472361809 0.49078341014
          0.42966751918 0.35446685879 0.16165413534 0 0 0
          0 0 0 0 0 0
          0 0 0 0.024647887324 0 0
          0 0 0 0 0.024647887324 0
          0 0.051212938005 0.06875 0.038817005545 0.012635379061 0.011666666667
          0.038817005545 0.06875 0.051212938005 0 0 0.064593301435
          0.10905730129 0.10491803279 0.036858974359 0.034023668639 0.10491803279 0.10905730129
          0.064593301435 0 0 0.070588235294 0.15523465704 0.16506410256
          0.12283464567 0.11271676301 0.16506410256 0.15523465704 0.070588235294 0
          0 0.081896551724 0.19333333333 0.25443786982 0.33959537572 0.38985313752
          0.25443786982 0.19333333333 0.081896551724 0 0 0.093301435407
          0.24768946396 0.35573770492 0.41987179487 0.46449704142 0.35573770492 0.24768946396
          0.093301435407 0 0 0.10781671159 0.30833333333 0.39556377079
          0.4440433213 0.48666666667 0.39556377079 0.30833333333 0.10781671159 0
          0 0.16197183099 0.35579514825 0.43062200957 0.44470588235 0.49137931034
          0.43062200957 0.35579514825 0.16197183099 0 0 0.16101694915
          0.3538961039 0.42939481268 0.4447592068 0.49090909091 0.42939481268 0.3538961039
          0.16101694915 0 0 0 0 0
          0 0 0 0 0 0
          0 0.027906976744 0 0 0 0
          0 0 0.027906976744 0 0 0.056338028169
          0.072776280323 0.040669856459 0.014117647059 0.012931034483 0.040669856459 0.072776280323
          0.056338028169 0 0 0.06875 0.11483253589 0.10828025478
          0.0375782881 0.034416826004 0.10828025478 0.11483253589 0.06875 0
          0 0.074303405573 0.16235294118 0.16910229645 0.12371134021 0.11257035647
          0.16910229645 0.16235294118 0.074303405573 0 0 0.084269662921
          0.20043103448 0.25812619503 0.33771106942 0.39242685026 0.25812619503 0.20043103448
          0.084269662921 0 0 0.09375 0.25358851675 0.36093418259
          0.41962421712 0.46845124283 0.36093418259 0.25358851675 0.09375 0
          0 0.10563380282 0.3153638814 0.4019138756 0.44470588235 0.49137931034
          0.4019138756 0.3153638814 0.10563380282 0 0 0.16744186047
          0.36971830986 0.440625 0.44582043344 0.49719101124 0.440625 0.36971830986
          0.16744186047 0 0 0.16759776536 0.3686440678 0.43984962406
          0.44609665428 0.49662162162 0.43984962406 0.3686440678 0.17318435754 0
          0 0 0 0 0 0
          0 0 0 0 0 0.027932960894
          0 0 0 0 0 0
          0.027932960894 0 0 0.055084745763 0.071428571429 0.040345821326
          0.014164305949 0.012987012987 0.040345821326 0.071428571429 0.055084745763 0
          0 0.067669172932 0.11239193084 0.1074168798 0.037688442211 0.034562211982
          0.1074168798 0.11239193084 0.067669172932 0 0 0.074349442379
          0.16147308782 0.16834170854 0.12376237624 0.11286681716 0.16834170854 0.16147308782
          0.074349442379 0 0 0.084459459459 0.2 0.25806451613
          0.33860045147 0.39211618257 0.25806451613 0.2 0.084459459459 0
          0 0.093984962406 0.25360230548 0.36061381074 0.41959798995 0.46774193548
          0.36061381074 0.25360230548 0.093984962406 0 0 0.10593220339
          0.31493506494 0.40057636888 0.4447592068 0.49090909091 0.40057636888 0.31493506494
          0.10593220339 0 0 0.16759776536 0.3686440678 0.43984962406
          0.44981412639 0.5 0.43984962406 0.3686440678 0.16759776536 0
          0.008064516129 0.1744966443 0.36734693878 0.44343891403 0.45535714286 0.50406504065
          0.44343891403 0.36734693878 0.18120805369 0.008064516129
        </DataArray>
        <DataArray type="Float64" Name="Displacement" NumberOfComponents="3" format="ascii" RangeMin="0.17293467654" RangeMax="1.4430679279">
          0.18351835986 -0.19012609792 -0.50223966681 0.16277857951 -0.12983788185 -0.4751481726
          0.13993372174 -0.063293979763 -0.44958737672 0.11271865745 0.0027547509123 -0.42016111321
          0.096829741171 0.051062287061 -0.39147796874 0.067722718301 0.12277901973 -0.36285995199
          0.039089695214 0.19178229574 -0.33471170424 0.017518780627 0.25079145775 -0.30795667025
          -0.0015297960919 0.31106957421 -0.27921371335 -0.021771640586 0.37163051441 -0.24760370917
          0.12423296678 -0.25277391397 -0.42822001392 0.10458671338 -0.1888553871 -0.39925836339
          0.080326406413 -0.12606543894 -0.37064707964 0.056132872971 -0.063825059292 -0.34159902909
          0.031382214798 -0.0018133484146 -0.31409628437 0.0082364549218 0.060750185736 -0.28540226885
          -0.01809992169 0.12649917709 -0.2566184096 -0.040976107587 0.18515464293 -0.229829923
          -0.063110195671 0.24835723698 -0.20187732413 -0.087132493613 0.31369666437 -0.17172825024
          0.068596535947 -0.31561712327 -0.35010778686 0.042117445939 -0.24862643499 -0.32092235667
          0.01744120988 -0.18603646451 -0.29297309098 -0.0070028802643 -0.12287284801 -0.26462458048
          -0.0316765228 -0.05994512271 -0.2352951429 -0.05391637941 0.0013608799264 -0.20694360546
          -0.078195669169 0.064878146586 -0.18031756057 -0.10165955579 0.12772238345 -0.15186005112
          -0.12743994527 0.18976160463 -0.12449134388 -0.1472368551 0.24699113569 -0.098931399489
          0.0041189479471 -0.36974089331 -0.27180781332 -0.022814659154 -0.31191201194 -0.24411336174
          -0.044298914182 -0.24675880228 -0.21513266271 -0.068212844879 -0.18375924547 -0.18620312491
          -0.092947783595 -0.12051598073 -0.15838873926 -0.11633949908 -0.058256271615 -0.1293458207
          -0.13967776602 0.0035607605345 -0.1019369146 -0.16388942415 0.06723674015 -0.074562268031
          -0.18469125168 0.13186249739 -0.045758808871 -0.21315291957 0.19372152661 -0.018288046104
          -0.058026022218 -0.43606740772 -0.19441898041 -0.08303327541 -0.37234533682 -0.16646384552
          -0.10572891512 -0.30735525166 -0.13753375569 -0.13016663288 -0.24471367048 -0.10867444537
          -0.15431681262 -0.18158415396 -0.080866397967 -0.17646677917 -0.11845596609 -0.05378278663
          -0.20156182524 -0.056154888151 -0.024808906741 -0.2256142452 0.0062538678323 0.0024795158578
          -0.24725894341 0.069551159365 0.031381066119 -0.27027201139 0.13138462882 0.06039204628
          -0.11995235545 -0.49389458805 -0.11835580865 -0.1451706533 -0.4337950685 -0.089239834169
          -0.16808623068 -0.3685908368 -0.059661105842 -0.1919828457 -0.30544998915 -0.031344858123
          -0.21792335314 -0.24237582446 -0.0046926655659 -0.23769098556 -0.17657929306 0.023697066067
          -0.26245074573 -0.1162550772 0.052632436207 -0.28648097107 -0.053815575523 0.080949244342
          -0.30923211112 0.0093799099959 0.10917512471 -0.33406528799 0.072741916008 0.13609760482
          -0.18242476878 -0.55487924451 -0.040949760135 -0.20753063325 -0.4947969209 -0.0099920410707
          -0.23008510246 -0.42953706325 0.017386648229 -0.25522686871 -0.3655289003 0.044970836343
          -0.27559430702 -0.30442699857 0.07515948951 -0.29887226202 -0.24033983436 0.10152553872
          -0.32471096616 -0.17575731106 0.13018981706 -0.34750619087 -0.11486234744 0.15826270815
          -0.369387421 -0.050776069697 0.18906941253 -0.39628602233 0.012326801948 0.2146987374
          -0.2457082926 -0.61764207278 0.037117968468 -0.27006856686 -0.5556087254 0.065421131353
          -0.29167322997 -0.49003286768 0.093646960463 -0.31864615379 -0.42853461661 0.12190463082
          -0.34500039183 -0.36340097866 0.15085065452 -0.36045024407 -0.2973329725 0.17986488351
          -0.38306731784 -0.23532609285 0.20768883749 -0.40645820957 -0.17314656366 0.23569570986
          -0.43067086214 -0.11059487834 0.26403322788 -0.45343642777 -0.0482715585 0.29430073621
          -0.30613910521 -0.67577728381 0.11517951626 -0.33233384339 -0.61654548957 0.14234852986
          -0.35693688117 -0.55415029749 0.17109485815 -0.37937263849 -0.48761222694 0.19998134018
          -0.40085753498 -0.42525375439 0.23216002388 -0.42479708247 -0.36396951123 0.25771412562
          -0.44726006912 -0.29748353198 0.28461238671 -0.46746227812 -0.23309671263 0.31505043653
          -0.49270994262 -0.17119828899 0.34363147751 -0.52133907851 -0.10906780895 0.36626217256
          -0.36892502425 -0.7494444145 0.18864207603 -0.39491590279 -0.67744434922 0.23172410104
          -0.4194856498 -0.61564457546 0.25580275356 -0.44659631962 -0.55483417537 0.28050173527
          -0.48408982621 -0.49074562024 0.32157065221 -0.48293104098 -0.41386325673 0.34268379939
          -0.50995629433 -0.35890402672 0.36776136953 -0.53379141937 -0.29793503715 0.39759554638
          -0.55949080047 -0.23459619465 0.4312588433 -0.58990012393 -0.16937690111 0.44535547075
          0.21841451692 -0.26869440165 -0.53894733156 0.19832959677 -0.20219032398 -0.51274831143
          0.17071543212 -0.13983296305 -0.48492404634 0.14535613742 -0.076481931794 -0.45601857605
          0.1209921942 -0.014109571084 -0.428099017 0.096493403157 0.050383028289 -0.40058246477
          0.073579263785 0.11026244241 -0.3713974244 0.049823537909 0.17271077613 -0.34421807342
          0.025601021269 0.23140368581 -0.31881585987 0.0053467071458 0.29722222619 -0.28668926441
          0.16325919322 -0.32304686994 -0.46714731173 0.13275913802 -0.26467024756 -0.43497951939
          0.10985155447 -0.20209204915 -0.40672829719 0.084950325766 -0.13865647062 -0.37791094681
          0.061244536859 -0.075913855603 -0.34996505817 0.03695767256 -0.013024194562 -0.32211874371
          0.013090150666 0.049276032426 -0.29341420127 -0.010021887019 0.111486064 -0.26649072
          -0.032528297704 0.17419505476 -0.23673549711 -0.061732419227 0.23599069117 -0.21703235701
          0.097319681452 -0.38847311517 -0.38806005077 0.071836058191 -0.3263514073 -0.35731669579
          0.048665266323 -0.26281896064 -0.3289828422 0.023863271133 -0.19998914987 -0.30104936326
          -0.00056635525458 -0.13689172863 -0.27272335961 -0.02426174625 -0.073757866747 -0.2442278451
          -0.047582194571 -0.011960369991 -0.21655214721 -0.072080658253 0.050566493629 -0.18826574672
          -0.094446956772 0.11368835555 -0.1599132483 -0.11999326957 0.17621942659 -0.13474951709
          0.035205210425 -0.44781891614 -0.31027036904 0.010401863097 -0.38687351852 -0.28008222837
          -0.013442769914 -0.32301750016 -0.25149264797 -0.037620263314 -0.26060858963 -0.22331442455
          -0.061975318929 -0.19679753188 -0.19495818194 -0.085754096095 -0.13450685318 -0.16675903817
          -0.10872083021 -0.071579765397 -0.13912190338 -0.13260695363 -0.0098134555108 -0.11056895717
          -0.15601801233 0.053210690182 -0.082706372824 -0.18047144614 0.11552327652 -0.056047991335
          -0.026579990647 -0.51207761958 -0.23312117663 -0.051279088793 -0.44728817849 -0.20311324136
          -0.074855991118 -0.38384527603 -0.17414123363 -0.099456615234 -0.32086115492 -0.14551595069
          -0.12328120291 -0.25837105677 -0.11699437845 -0.14693888861 -0.19495865043 -0.089486250594
          -0.17057792275 -0.13224360004 -0.060986617818 -0.19432463518 -0.070395927563 -0.033804073956
          -0.21730549003 -0.0068847421083 -0.0054160125594 -0.23933896871 0.055033352559 0.023264437631
          -0.08918257349 -0.57016893937 -0.15379682821 -0.11262530983 -0.50841777911 -0.12576903749
          -0.13732037917 -0.44498462841 -0.096743269586 -0.16128799039 -0.38132572732 -0.068288212293
          -0.18538420401 -0.31893521409 -0.039315276096 -0.20769598638 -0.25558230431 -0.011550205223
          -0.23151858959 -0.19229770605 0.016119927445 -0.25490202005 -0.12995680004 0.044513147857
          -0.2791993228 -0.067459415832 0.071891348814 -0.30180753915 -0.0057228431538 0.10113246498
          -0.15147105241 -0.6338143426 -0.07591465315 -0.17508271976 -0.56976769822 -0.048052089867
          -0.19893598148 -0.50630311126 -0.019874239375 -0.22332953034 -0.44353952847 0.0085822342547
          -0.2473755838 -0.3790600465 0.037194898776 -0.26990091972 -0.31613974263 0.065754282117
          -0.29219110051 -0.2530724767 0.093509750943 -0.31629377109 -0.19076750098 0.12148558511
          -0.33975175853 -0.1281337562 0.14969641215 -0.36258256753 -0.06571070063 0.17985803781
          -0.2121360389 -0.69399563026 0.00057825733775 -0.23700063772 -0.63037721361 0.02887524068
          -0.2615674162 -0.56728406158 0.057671580789 -0.2845570024 -0.50323109786 0.086860888504
          -0.31020924582 -0.43999528765 0.11490571988 -0.33030426727 -0.37495706143 0.14256435238
          -0.35504292911 -0.31357414592 0.17094625643 -0.37691436159 -0.24992733711 0.19913557254
          -0.4013635829 -0.18766675278 0.22759224021 -0.42478280272 -0.12540017008 0.25563078329
          -0.2751795596 -0.75204963596 0.079070743081 -0.29973511138 -0.69157996109 0.10563973831
          -0.32436709548 -0.62851338483 0.13318475165 -0.34953497195 -0.56505974417 0.16264964021
          -0.37267104847 -0.50056978827 0.19151300837 -0.39236117118 -0.43688619371 0.21930113995
          -0.41401393114 -0.37221086446 0.24844360059 -0.43877181065 -0.31016253348 0.27610791331
          -0.46313866847 -0.24844793852 0.3052611816 -0.49202567805 -0.18510587193 0.33316597738
          -0.33555956824 -0.82094774315 0.15763547412 -0.35827490754 -0.74699325427 0.18804326165
          -0.38829996707 -0.69045418099 0.21010343996 -0.40967037276 -0.62649736232 0.2420317801
          -0.43526230341 -0.56520812365 0.27025744578 -0.45269807628 -0.50036451672 0.29795746096
          -0.47810935466 -0.43707866862 0.32553806116 -0.49945067853 -0.37108462866 0.35361937455
          -0.53056391219 -0.31287819688 0.38321362083 -0.54791410469 -0.24673614549 0.41280243084
          0.25247154755 -0.34364370897 -0.57780807486 0.22848864125 -0.28003118177 -0.54963327175
          0.20189003597 -0.2173172859 -0.52008542769 0.17859537889 -0.15469859986 -0.49241007792
          0.15509353715 -0.093655876686 -0.46362384884 0.13011633819 -0.031289405719 -0.43570264837
          0.10526458122 0.033000159061 -0.40808782779 0.080434221748 0.096291141302 -0.3794830133
          0.059269329771 0.15649308595 -0.351621417 0.032857804755 0.21843892821 -0.32650937611
          0.19028967281 -0.40638353749 -0.50031677802 0.1663643784 -0.34131455028 -0.47224998451
          0.14037830946 -0.27833883284 -0.44380202811 0.11644838383 -0.21577535523 -0.41508230014
          0.092722473541 -0.15348345818 -0.38675354528 0.068351340307 -0.090264325543 -0.35899451218
          0.04451673078 -0.027886517837 -0.33080953496 0.020881496797 0.034793454443 -0.30274129796
          -0.0034086987933 0.096462224796 -0.2752934235 -0.024790473722 0.1565539696 -0.24728824812
          0.12900890898 -0.46614022948 -0.42410427876 0.1029461027 -0.40202058294 -0.39429356598
          0.078944498664 -0.33876113441 -0.36589121135 0.054634013865 -0.27617427423 -0.33715260128
          0.030825077276 -0.21362800372 -0.30896356221 0.0071999773832 -0.15055569599 -0.2808113003
          -0.016834641724 -0.088199948043 -0.25271443775 -0.040900931115 -0.025103532897 -0.22508774151
          -0.063877079528 0.037145040646 -0.1971597459 -0.087158065263 0.097478596118 -0.17065822645
          0.065705769266 -0.52546685169 -0.3451705536 0.041035059622 -0.4628581111 -0.31692329381
          0.017315418052 -0.39985121332 -0.28833614175 -0.0068028046793 -0.33647870823 -0.25986544246
          -0.03073173943 -0.27371663937 -0.23137534766 -0.054883280751 -0.21112241102 -0.20360990103
          -0.078749535819 -0.14820284042 -0.17562373724 -0.1021242784 -0.085847831403 -0.14771514117
          -0.12491516299 -0.022768749837 -0.11914299861 -0.14979519225 0.039105112996 -0.091395326783
          0.0039444540183 -0.58829330757 -0.26749866733 -0.019598643383 -0.52416932044 -0.23876712678
          -0.044413683467 -0.46036286152 -0.21105861553 -0.068252135508 -0.39700893545 -0.18231186982
          -0.092344230576 -0.33446099763 -0.15438625756 -0.11614649262 -0.27149259658 -0.12616624514
          -0.13961850465 -0.20884811547 -0.098154706876 -0.16277467451 -0.14603303585 -0.070005276534
          -0.18684549945 -0.084096952622 -0.041759131126 -0.20912310398 -0.021250885998 -0.012771181631
          -0.057579028549 -0.64667745636 -0.19038354241 -0.081749422058 -0.5837228788 -0.1619638303
          -0.10552378714 -0.52069373846 -0.13359781235 -0.12991234184 -0.45759609064 -0.10519006188
          -0.15536781288 -0.39585763818 -0.076610052294 -0.17680076719 -0.3315924227 -0.048120688451
          -0.20077926527 -0.2689771727 -0.020853057437 -0.22480407722 -0.2068115093 0.0074153839854
          -0.24876510726 -0.14371976609 0.035323065841 -0.27307466114 -0.081230736355 0.063409221066
          -0.11962275838 -0.7083472095 -0.11323192785 -0.14371225596 -0.64556323147 -0.084940311345
          -0.16765470263 -0.58175981375 -0.05630384329 -0.19155505924 -0.51849070405 -0.027220446248
          -0.21696079396 -0.45626376687 0.00077855850994 -0.23809052387 -0.39224937251 0.029056053562
          -0.26219137865 -0.32932955126 0.056834487634 -0.28543965328 -0.26655256459 0.084734257257
          -0.30867207356 -0.20418825792 0.11330944352 -0.33334283767 -0.1415044304 0.14092133478
          -0.18165103716 -0.76992014541 -0.035562830742 -0.20462955459 -0.70517317778 -0.0074373422163
          -0.22995350653 -0.6436384171 0.020534286613 -0.25431468781 -0.58007887236 0.048719420901
          -0.27925738724 -0.51654186373 0.078141444029 -0.29979461419 -0.4526940542 0.10705277746
          -0.32295857395 -0.38951436939 0.13388073656 -0.34681184464 -0.32761813308 0.16245905398
          -0.37276870339 -0.26555666393 0.1897967471 -0.39499339477 -0.20167718754 0.21928794682
          -0.24362759944 -0.83044412608 0.040749512894 -0.26775032494 -0.7674801044 0.068745106847
          -0.29247897164 -0.70415536456 0.098637845434 -0.31640171032 -0.64093816945 0.1259394122
          -0.34199823202 -0.57792077586 0.15541269039 -0.36081183661 -0.51263373263 0.18372782239
          -0.38485666456 -0.45063268203 0.21035127044 -0.40863366009 -0.38773506525 0.2404211909
          -0.43257435341 -0.32495507224 0.26721913941 -0.45600834452 -0.2616651146 0.29512259616
          -0.30596375415 -0.89233988486 0.11711111695 -0.33084134154 -0.82903409108 0.14750348834
          -0.3552934636 -0.76606095288 0.17741997701 -0.37848519824 -0.70270299627 0.20377687239
          -0.39975923874 -0.63886145741 0.23217085024 -0.42256123642 -0.57629884169 0.25880744665
          -0.44532657138 -0.51132044241 0.28916834045 -0.46969349774 -0.4485125011 0.31992192726
          -0.49359691735 -0.38578383342 0.34734790505 -0.51613177166 -0.32243682441 0.37317937732
          0.2777183735 -0.41870666666 -0.61387619248 0.25490811092 -0.35705046255 -0.58509232182
          0.23211626443 -0.29433218467 -0.55608749365 0.2082950313 -0.23130464521 -0.52860159822
          0.1836765358 -0.16846582485 -0.50009158571 0.16021843953 -0.10635752408 -0.47229962602
          0.13674278842 -0.04305527218 -0.44409330054 0.11163819729 0.019215796596 -0.41587507396
          0.089363956991 0.082078414669 -0.38740749326 0.066138240433 0.1481145995 -0.35717850586
          0.22343109742 -0.48149592143 -0.53796462259 0.19582190818 -0.41723009781 -0.50858733018
          0.17123124257 -0.35504988395 -0.47980493625 0.14755774812 -0.29165111451 -0.45168063497
          0.1235557504 -0.22959048439 -0.42316006961 0.099259732879 -0.16657984719 -0.39506441872
          0.075304578795 -0.10402187329 -0.36719525161 0.051532466043 -0.041054604715 -0.33910001691
          0.027421891707 0.021247572705 -0.31146174281 0.00473579784 0.080662270931 -0.28542937348
          0.15874128526 -0.541420192 -0.45866305194 0.13390940993 -0.47869626657 -0.43091839007
          0.10976714377 -0.41567001282 -0.40192570801 0.085688006776 -0.3526951288 -0.37409166979
          0.061618487812 -0.28979164998 -0.34559541299 0.037691611083 -0.22707687572 -0.31757376428
          0.013842075541 -0.16447233767 -0.28942266622 -0.0092601490283 -0.10217970895 -0.26125960195
          -0.033218935269 -0.039478609493 -0.23385872932 -0.057452321029 0.023376673805 -0.20493619744
          0.097430055571 -0.60175162229 -0.38235084284 0.072597361138 -0.53890496569 -0.35357440523
          0.04854938179 -0.47613367832 -0.32493804302 0.024119640081 -0.41309000529 -0.29655656611
          0.00023036285326 -0.35037541255 -0.26807820535 -0.023759414923 -0.28753476684 -0.23997762652
          -0.047466125535 -0.22491243874 -0.21209038951 -0.071347970456 -0.16227297363 -0.18422397599
          -0.094755733502 -0.099478241545 -0.1561970498 -0.11932232829 -0.037049529787 -0.12828695209
          0.03507161958 -0.66276962358 -0.30547645185 0.011043000761 -0.60025790302 -0.27622112321
          -0.013238996922 -0.53681907115 -0.24735036976 -0.037244545487 -0.47346944894 -0.21881204147
          -0.061370897531 -0.41062170164 -0.19069639779 -0.085181564492 -0.34793616463 -0.16269570525
          -0.10909514978 -0.2852673094 -0.13482727605 -0.13242228375 -0.22263850981 -0.10659168774
          -0.15561534288 -0.16015495906 -0.078520414816 -0.1797559893 -0.097165619215 -0.051470352344
          -0.026842452638 -0.72361988873 -0.22799773409 -0.051412621766 -0.66121373098 -0.19907830591
          -0.075060441815 -0.59757973943 -0.17022975605 -0.099057899528 -0.53454050075 -0.14152948065
          -0.12336390764 -0.47122019304 -0.11355223151 -0.14622709021 -0.40794863787 -0.085713521144