<?xml version="1.0"?>
<VTKFile type="UnstructuredGrid" version="0.1" byte_order="LittleEndian" compressor="vtkZLibDataCompressor">
  <UnstructuredGrid>
    <FieldData>
      <DataArray type="Float64" Name="TIME" NumberOfTuples="1" format="ascii" RangeMin="0.74758850094" RangeMax="0.74758850094">
        0.74758850094
      </DataArray>
    </FieldData>
    <Piece NumberOfPoints="1000" NumberOfCells="0">
      <PointData>
        <DataArray type="Float64" Name="Damage" format="ascii" RangeMin="0" RangeMax="0.50406504065">
          0 0 0 0 0 0
          0 0 0 0 0 0.027932960894
          0 0 0 0 0 0
          0.027932960894 0 0 0.055084745763 0.071428571429 0.040345821326
          0.014164305949 0.012987012987 0.040345821326 0.071428571429 0.055084745763 0
          0 0.067669172932 0.11239193084 0.1074168798 0.037688442211 0.034562211982
          0.1074168798 0.11239193084 0.067669172932 0 0 0.074349442379
          0.16147308782 0.16834170854 0.12376237624 0.11286681716 0.16834170854 0.16147308782
          0.074349442379 0 0 0.084459459459 0.2 0.25806451613
          0.33860045147 0.39211618257 0.25806451613 0.2 0.084459459459 0
          0 0.093984962406 0.25360230548 0.36061381074 0.41959798995 0.46774193548
          0.36061381074 0.25360230548 0.093984962406 0 0 0.10593220339
          0.31493506494 0.40057636888 0.4447592068 0.49090909091 0.40057636888 0.31493506494
          0.10593220339 0 0 0.17318435754 0.3686440678 0.43984962406
          0.44981412639 0.5 0.43984962406 0.3686440678 0.17318435754 0
          0.016129032258 0.18791946309 0.36734693878 0.44343891403 0.45535714286 0.50406504065
          0.44343891403 0.36734693878 0.18791946309 0.008064516129 0 0
          0 0 0 0 0 0
          0 0 0 0.027906976744 0 0
          0 0 0 0 0.027906976744 0
          0 0.056338028169 0.072776280323 0.040669856459 0.014117647059 0.012931034483
          0.040669856459 0.072776280323 0.056338028169 0 0 0.06875
          0.11483253589 0.10828025478 0.0375782881 0.034416826004 0.10828025478 0.11483253589
          0.06875 0 0 0.074303405573 0.16235294118 0.16910229645
          0.12371134021 0.11257035647 0.16910229645 0.16235294118 0.074303405573 0
          0 0.084269662921 0.20043103448 0.25812619503 0.33771106942 0.39242685026
          0.25812619503 0.20043103448 0.084269662921 0 0 0.09375
          0.25358851675 0.36093418259 0.41962421712 0.46845124283 0.36093418259 0.25358851675
          0.09375 0 0 0.10563380282 0.3153638814 0.4019138756
          0.44470588235 0.49137931034 0.4019138756 0.3153638814 0.10563380282 0
          0 0.16744186047 0.36971830986 0.440625 0.44582043344 0.49719101124
          0.440625 0.36971830986 0.16744186047 0 0.013422818792 0.17877094972
          0.3686440678 0.43984962406 0.44609665428 0.49662162162 0.43984962406 0.3686440678
          0.17318435754 0 0 0 0 0
          0 0 0 0 0 0
          0 0.024647887324 0 0 0 0
          0 0 0.024647887324 0 0 0.051212938005
          0.06875 0.038817005545 0.012635379061 0.011666666667 0.038817005545 0.06875
          0.051212938005 0 0 0.064593301435 0.10905730129 0.10491803279
          0.036858974359 0.034023668639 0.10491803279 0.10905730129 0.064593301435 0
          0 0.070588235294 0.15523465704 0.16506410256 0.12283464567 0.11271676301
          0.16506410256 0.15523465704 0.070588235294 0 0 0.081896551724
          0.19333333333 0.25443786982 0.33959537572 0.38985313752 0.25443786982 0.19333333333
          0.081896551724 0 0 0.093301435407 0.24768946396 0.35573770492
          0.41987179487 0.46449704142 0.35573770492 0.24768946396 0.093301435407 0
          0 0.10781671159 0.30833333333 0.39556377079 0.4440433213 0.48666666667
          0.39556377079 0.30833333333 0.10781671159 0 0 0.16197183099
          0.35579514825 0.43062200957 0.44470588235 0.49137931034 0.43062200957 0.35579514825
          0.16197183099 0 0 0.16101694915 0.3538961039 0.42939481268
          0.4447592068 0.49090909091 0.42939481268 0.3538961039 0.16101694915 0
          0 0 0 0 0 0
          0 0 0 0 0 0.025
          0 0 0 0 0 0
          0.025 0 0 0.05023923445 0.068391866913 0.039344262295
          0.012820512821 0.011834319527 0.039344262295 0.068391866913 0.05023923445 0
          0 0.063694267516 0.10819672131 0.10465116279 0.036984352774 0.034120734908
          0.10465116279 0.10819672131 0.063694267516 0 0 0.070981210856
          0.15544871795 0.16500711238 0.12290502793 0.11282051282 0.16500711238 0.15544871795
          0.070981210856 0 0 0.082217973231 0.19378698225 0.25459317585
          0.33974358974 0.38981042654 0.25459317585 0.19378698225 0.082217973231 0
          0 0.093418259023 0.24918032787 0.35610465116 0.41963015647 0.46456692913
          0.35610465116 0.24918032787 0.093418259023 0 0 0.10765550239
          0.30868761553 0.39508196721 0.44391025641 0.48668639053 0.39508196721 0.30868761553
          0.10765550239 0 0 0.1625 0.35645933014 0.43099787686
          0.44467640919 0.4913957935 0.43099787686 0.35645933014 0.1625 0
          0 0.16165413534 0.35446685879 0.42966751918 0.44472361809 0.49078341014
          0.42966751918 0.35446685879 0.16165413534 0 0 0
          0 0 0 0 0 0
          0 0 0 0.02786377709 0 0
          0 0 0 0 0.02786377709 0
          0 0.054117647059 0.070397111913 0.040064102564 0.014173228346 0.013005780347
          0.040064102564 0.070397111913 0.054117647059 0 0 0.066805845511
          0.11057692308 0.106685633 0.037709497207 0.034615384615 0.106685633 0.11057692308
          0.066805845511 0 0 0.074226804124 0.16062992126 0.16759776536
          0.12362637363 0.11292346299 0.16759776536 0.16062992126 0.074226804124 0
          0 0.084427767355 0.19942196532 0.25769230769 0.33877038896 0.39145496536
          0.25769230769 0.19942196532 0.084427767355 0 0 0.093945720251
          0.25320512821 0.35988620199 0.41899441341 0.46666666667 0.35988620199 0.25320512821
          0.093945720251 0 0 0.10588235294 0.31407942238 0.39903846154
          0.44409448819 0.48988439306 0.39903846154 0.31407942238 0.10588235294 0
          0 0.16718266254 0.36705882353 0.43841336117 0.44536082474 0.49530956848
          0.43841336117 0.36705882353 0.16718266254 0 0 0.16728624535
          0.36543909348 0.43718592965 0.44554455446 0.49435665914 0.43718592965 0.36543909348
          0.16728624535 0 0 0 0 0
          0 0 0 0 0 0
          0 0.025280898876 0 0 0 0
          0 0 0.025280898876 0 0 0.049568965517
          0.066666666667 0.038461538462 0.013005780347 0.012016021362 0.038461538462 0.066666666667
          0.049568965517 0 0 0.06309751434 0.1050295858 0.10367454068
          0.037179487179 0.034360189573 0.10367454068 0.1050295858 0.06309751434 0
          0 0.071294559099 0.15462427746 0.1641025641 0.12296110414 0.11316397229
          0.1641025641 0.15462427746 0.071294559099 0 0 0.082616179002
          0.19359145527 0.25473933649 0.34064665127 0.38930481283 0.25473933649 0.19359145527
          0.082616179002 0 0 0.093690248566 0.24852071006 0.35564304462
          0.41923076923 0.46327014218 0.35564304462 0.24852071006 0.093690248566 0
          0 0.10775862069 0.30833333333 0.39349112426 0.4436416185 0.48598130841
          0.39349112426 0.30833333333 0.10775862069 0 0 0.16292134831
          0.35560344828 0.43021032505 0.44465290807 0.49053356282 0.43021032505 0.35560344828
          0.16292134831 0 0 0.16216216216 0.35324675325 0.42857142857
          0.44469525959 0.48962655602 0.42857142857 0.35324675325 0.16216216216 0
          0 0 0 0 0 0
          0 0 0 0 0 0.025
          0 0 0 0 0 0
          0.025 0 0 0.05023923445 0.068391866913 0.039344262295
          0.012820512821 0.011834319527 0.039344262295 0.068391866913 0.05023923445 0
          0 0.063694267516 0.10819672131 0.10465116279 0.036984352774 0.034120734908
          0.10465116279 0.10819672131 0.063694267516 0 0 0.070981210856
          0.15544871795 0.16500711238 0.12290502793 0.11282051282 0.16500711238 0.15544871795
          0.070981210856 0 0 0.082217973231 0.19378698225 0.25459317585
          0.33974358974 0.38981042654 0.25459317585 0.19378698225 0.082217973231 0
          0 0.093418259023 0.24918032787 0.35610465116 0.41963015647 0.46456692913
          0.35610465116 0.24918032787 0.093418259023 0 0 0.10765550239
          0.30868761553 0.39508196721 0.44391025641 0.48668639053 0.39508196721 0.30868761553
          0.10765550239 0 0 0.1625 0.35645933014 0.43099787686
          0.44467640919 0.4913957935 0.43099787686 0.35645933014 0.1625 0
          0 0.16165413534 0.35446685879 0.42966751918 0.44472361809 0.49078341014
          0.42966751918 0.35446685879 0.16165413534 0 0 0
          0 0 0 0 0 0
          0 0 0 0.024647887324 0 0
          0 0 0 0 0.024647887324 0
          0 0.051212938005 0.06875 0.038817005545 0.012635379061 0.011666666667
          0.038817005545 0.06875 0.051212938005 0 0 0.064593301435
          0.10905730129 0.10491803279 0.036858974359 0.034023668639 0.10491803279 0.10905730129
          0.064593301435 0 0 0.070588235294 0.15523465704 0.16506410256
          0.12283464567 0.11271676301 0.16506410256 0.15523465704 0.070588235294 0
          0 0.081896551724 0.19333333333 0.25443786982 0.33959537572 0.38985313752
          0.25443786982 0.19333333333 0.081896551724 0 0 0.093301435407
          0.24768946396 0.35573770492 0.41987179487 0.46449704142 0.35573770492 0.24768946396
          0.093301435407 0 0 0.10781671159 0.30833333333 0.39556377079
          0.4440433213 0.48666666667 0.39556377079 0.30833333333 0.10781671159 0
          0 0.16197183099 0.35579514825 0.43062200957 0.44470588235 0.49137931034
          0.43062200957 0.35579514825 0.16197183099 0 0 0.16101694915
          0.3538961039 0.42939481268 0.4447592068 0.49090909091 0.42939481268 0.3538961039
          0.16101694915 0 0 0 0 0
          0 0 0 0 0 0
          0 0.027906976744 0 0 0 0
          0 0 0.027906976744 0 0 0.056338028169
          0.072776280323 0.040669856459 0.014117647059 0.012931034483 0.040669856459 0.072776280323
          0.056338028169 0 0 0.06875 0.11483253589 0.10828025478
          0.0375782881 0.034416826004 0.10828025478 0.11483253589 0.06875 0
          0 0.074303405573 0.16235294118 0.16910229645 0.12371134021 0.11257035647
          0.16910229645 0.16235294118 0.074303405573 0 0 0.084269662921
          0.20043103448 0.25812619503 0.33771106942 0.39242685026 0.25812619503 0.20043103448
          0.084269662921 0 0 0.09375 0.25358851675 0.36093418259
          0.41962421712 0.46845124283 0.36093418259 0.25358851675 0.09375 0
          0 0.10563380282 0.3153638814 0.4019138756 0.44470588235 0.49137931034
          0.4019138756 0.3153638814 0.10563380282 0 0 0.16744186047
          0.36971830986 0.440625 0.44582043344 0.49719101124 0.440625 0.36971830986
          0.16744186047 0 0 0.16759776536 0.3686440678 0.43984962406
          0.44609665428 0.49662162162 0.43984962406 0.3686440678 0.17318435754 0
          0 0 0 0 0 0
          0 0 0 0 0 0.027932960894
          0 0 0 0 0 0
          0.027932960894 0 0 0.055084745763 0.071428571429 0.040345821326
          0.014164305949 0.012987012987 0.040345821326 0.071428571429 0.055084745763 0
          0 0.067669172932 0.11239193084 0.1074168798 0.037688442211 0.034562211982
          0.1074168798 0.11239193084 0.067669172932 0 0 0.074349442379
          0.16147308782 0.16834170854 0.12376237624 0.11286681716 0.16834170854 0.16147308782
          0.074349442379 0 0 0.084459459459 0.2 0.25806451613
          0.33860045147 0.39211618257 0.25806451613 0.2 0.084459459459 0
          0 0.093984962406 0.25360230548 0.36061381074 0.41959798995 0.46774193548
          0.36061381074 0.25360230548 0.093984962406 0 0 0.10593220339
          0.31493506494 0.40057636888 0.4447592068 0.49090909091 0.40057636888 0.31493506494
          0.10593220339 0 0 0.16759776536 0.3686440678 0.43984962406
          0.44981412639 0.5 0.43984962406 0.3686440678 0.16759776536 0
          0.008064516129 0.1744966443 0.36734693878 0.43891402715 0.45089285714 0.50406504065
          0.44343891403 0.36734693878 0.18120805369 0.008064516129
        </DataArray>
        <DataArray type="Float64" Name="Displacement" NumberOfComponents="3" format="ascii" RangeMin="0.71667482971" RangeMax="1.6696300073">
          0.11676542931 -1.0206178061 -0.37798615497 0.11592762894 -0.98704455569 -0.36435209069
          0.10379500424 -0.94785896758 -0.35539270201 0.09527141287 -0.89607444426 -0.3507910154
          0.090599249055 -0.8670888139 -0.33602362797 0.083497678122 -0.83013638741 -0.3265436878
          0.069706412449 -0.77381001425 -0.3222198595 0.065947334559 -0.74125715276 -0.30813836061
          0.056571095552 -0.70579329716 -0.29953052473 0.049557704788 -0.65226429043 -0.29277660574
          0.082431769354 -1.0495119978 -0.32471770986 0.075230485595 -1.006786357 -0.31467080683
          0.068633677553 -0.9717439493 -0.30396559506 0.05682430558 -0.92539650841 -0.2959184294
          0.048287537065 -0.88299411882 -0.28682219702 0.040961212334 -0.8440077748 -0.27696083188
          0.032118519772 -0.80194959306 -0.26890374326 0.026634303192 -0.76893555763 -0.25810408359
          0.015873167649 -0.72465904123 -0.24980534494 0.0082823952054 -0.68109942969 -0.23915666216
          0.043933253466 -1.0689545869 -0.27473435 0.03596248825 -1.0275617489 -0.26461662594
          0.026476888238 -0.98682587699 -0.25492995507 0.017242463898 -0.9475982958 -0.2444326809
          0.0095494868879 -0.90703532886 -0.23566199347 0.0014120600379 -0.86513578366 -0.22678620765
          -0.0070071147444 -0.82540122556 -0.2169720428 -0.016407092911 -0.78487791097 -0.2091672497
          -0.025809850409 -0.74557848502 -0.19958704213 -0.032702879833 -0.70040762611 -0.19017171777
          0.0035548836381 -1.0884234479 -0.22375069936 -0.0050497802959 -1.0485796995 -0.21401080753
          -0.014534312872 -1.0079538512 -0.20409671254 -0.023099415297 -0.96715240179 -0.1947409943
          -0.031481250013 -0.92615440717 -0.18530211229 -0.039113595393 -0.88521263341 -0.17652406878
          -0.046742855311 -0.8458518951 -0.16695356004 -0.055836017431 -0.80466213839 -0.15806499957
          -0.065247639069 -0.76457726075 -0.14928091283 -0.073727550414 -0.72150159917 -0.13991598779
          -0.040168089651 -1.1113646716 -0.16916759742 -0.046039153688 -1.0682213894 -0.16232480565
          -0.054749136886 -1.028604204 -0.15280486288 -0.063433882984 -0.98765336741 -0.14301834028
          -0.071893311366 -0.94653494931 -0.13405913253 -0.078882802915 -0.90697260582 -0.1266647221
          -0.088143517445 -0.86591964789 -0.11531613107 -0.09629012266 -0.8254998387 -0.10709200924
          -0.10489619807 -0.78423934009 -0.097521428214 -0.11122933564 -0.74325758127 -0.085484837573
          -0.081398961039 -1.132905284 -0.11989261458 -0.087780031864 -1.0918270542 -0.11161954131
          -0.095405811926 -1.0490888948 -0.10218678729 -0.10440726224 -1.0086873119 -0.092601129492
          -0.10912344066 -0.96603651084 -0.080746952837 -0.12400961514 -0.92936852023 -0.073599135769
          -0.1277595711 -0.88684905251 -0.065388624053 -0.13659951171 -0.84562974281 -0.056068844798
          -0.14336134106 -0.80548151589 -0.045675804927 -0.15063767989 -0.76319365398 -0.034789771162
          -0.12025033658 -1.1531388801 -0.071416002715 -0.12751540226 -1.1112093034 -0.061760411616
          -0.13631946046 -1.0698325169 -0.051411744753 -0.14416780721 -1.029073829 -0.042352649157
          -0.15129655829 -0.98846283786 -0.031767499002 -0.16098748269 -0.94966969758 -0.025701936325
          -0.16736146118 -0.90682893249 -0.015581463739 -0.1771084451 -0.86585766 -0.0052390669936
          -0.18686985131 -0.82595999457 0.0040561919668 -0.19343176843 -0.78409596177 0.014908446271
          -0.16213970814 -1.1745332585 -0.018291269434 -0.16848743237 -1.132925637 -0.01230864869
          -0.17609847601 -1.0898485295 -0.0001535014835 -0.18515208959 -1.0505449254 0.0079797744652
          -0.19929660618 -1.0102786134 0.014703800598 -0.19526380899 -0.96633890065 0.023278876406
          -0.21034829568 -0.92943885249 0.035433240132 -0.22065204778 -0.88771158666 0.045587407524
          -0.22616410378 -0.84709452142 0.053309122665 -0.23382044566 -0.80536543989 0.065291574878
          -0.20274956916 -1.1993705545 0.030412436897 -0.21192567993 -1.1542813848 0.041975466966
          -0.21801482908 -1.111969186 0.050461374699 -0.22564949199 -1.0705384758 0.06054318805
          -0.23395535662 -1.0309808431 0.069086905496 -0.24556562698 -0.99457238442 0.075282063186
          -0.25218463539 -0.95028642107 0.086413689747 -0.26055674993 -0.90926084163 0.096267708222
          -0.26605121954 -0.86567333747 0.11000434684 -0.274746989 -0.8277606968 0.11529343841
          -0.24841047106 -1.2215525102 0.082534167637 -0.25325918274 -1.1813219474 0.078449121568
          -0.26050956472 -1.1355601139 0.09982880473 -0.26664847077 -1.0928763244 0.11160640202
          -0.28113247703 -1.0501413601 0.12543390011 -0.28064881187 -1.008193266 0.13294274952
          -0.29209729921 -0.973049049 0.1400817321 -0.29994919167 -0.93062606194 0.14660748477
          -0.30425544064 -0.88955340762 0.14709808026 -0.32218916844 -0.84367075323 0.16366409776
          0.13849891868 -1.0778583667 -0.38670895436 0.12610906806 -1.0392966533 -0.3745637392
          0.11851719807 -0.99719239081 -0.36724475826 0.10912619349 -0.95489154396 -0.35951058114
          0.10096150317 -0.91509937877 -0.34971693696 0.091788698535 -0.87211558853 -0.34038120598
          0.084506941784 -0.83297172673 -0.3310980073 0.075736583862 -0.79291584001 -0.32187654417
          0.069694868731 -0.75383263756 -0.3112615376 0.056696822457 -0.71812255518 -0.30649248063
          0.091819097056 -1.0969121835 -0.33685428853 0.085736835795 -1.0579157194 -0.32738614015
          0.076810045542 -1.0180923521 -0.31727932646 0.06881127233 -0.9763985821 -0.30819821489
          0.06054961536 -0.93577856211 -0.29913466923 0.052225280937 -0.89491162277 -0.28986139292
          0.043114939073 -0.85460364169 -0.28025488294 0.036133681306 -0.81499922502 -0.27121947308
          0.027266120441 -0.7745166293 -0.26314108461 0.018658525619 -0.7315555823 -0.25368812866
          0.052984126037 -1.1196110374 -0.28612907839 0.04411125307 -1.078170531 -0.27620609748
          0.036001927858 -1.0378943981 -0.26668279124 0.027862062831 -0.99646631355 -0.25790164053
          0.019612837875 -0.95619972658 -0.24846534155 0.012118556725 -0.91636777273 -0.23857808402
          0.0039960672593 -0.87463924158 -0.23006804605 -0.0045696683275 -0.83354749934 -0.22098888214
          -0.012434758056 -0.79333591053 -0.21132873129 -0.02081506907 -0.75389478291 -0.20268340073
          0.011891588719 -1.138863966 -0.23619094575 0.0035211668591 -1.0991754952 -0.22559390603
          -0.0041301311916 -1.0583157548 -0.21611306641 -0.012498330932 -1.0169988112 -0.20696650084
          -0.020253841567 -0.97692537479 -0.19826155679 -0.028355075169 -0.93639158443 -0.18881380379
          -0.036489181957 -0.89467967559 -0.17949325333 -0.04446168486 -0.85461075438 -0.16972271403
          -0.052722015005 -0.81340933848 -0.1608609929 -0.060761817248 -0.7720795726 -0.1515178429
          -0.028305371644 -1.1608711435 -0.18460274187 -0.03669875931 -1.120091683 -0.17521589709
          -0.044221466123 -1.0793107047 -0.16570938048 -0.052632173981 -1.0379786812 -0.15626666481
          -0.060683474526 -0.99766985524 -0.14656223666 -0.068778853896 -0.95722690385 -0.13787214203
          -0.076517249996 -0.91595311424 -0.12868326867 -0.084886340864 -0.87560546168 -0.11963167246
          -0.092859942293 -0.83423451831 -0.11043650979 -0.10122980549 -0.79386422745 -0.10104978334
          -0.068339220657 -1.1816950398 -0.13493008531 -0.076103045277 -1.140874862 -0.12417522141
          -0.084281371219 -1.0991720833 -0.11468363464 -0.092866635311 -1.0588802316 -0.10545585653
          -0.10154401931 -1.0180684434 -0.096664183512 -0.10889000495 -0.97765064312 -0.088350841886
          -0.11750795703 -0.93666943832 -0.078717218676 -0.12533599887 -0.89597918803 -0.068856355824
          -0.13415037675 -0.85512841399 -0.0593317176 -0.14245246561 -0.81417893032 -0.051205268601
          -0.10901427515 -1.2026452087 -0.082461244664 -0.11636182649 -1.1617904144 -0.074405091386
          -0.12541497765 -1.1208606607 -0.064322322307 -0.13284105877 -1.0798377383 -0.053581532906
          -0.14189635191 -1.0382404973 -0.045660955486 -0.1494118821 -0.99803469341 -0.038239545292
          -0.15864933512 -0.95833143714 -0.027459337975 -0.16612249116 -0.91692564508 -0.017978713697
          -0.17486114948 -0.87613766258 -0.0094996976772 -0.18320938844 -0.83477176199 0.00070691613463
          -0.14940258232 -1.2240658995 -0.032977468359 -0.15792939014 -1.182511511 -0.023211737951
          -0.16554212201 -1.1414719932 -0.014645042946 -0.17461107823 -1.10086128 -0.0046052627252
          -0.18336316098 -1.059282342 0.0048053524171 -0.19142532726 -1.0204058415 0.012619253183
          -0.19870593468 -0.97916085859 0.022428012402 -0.20795304657 -0.93816420804 0.031293432342
          -0.21602479553 -0.89655071346 0.041919210887 -0.22437358898 -0.85530273638 0.051221617142
          -0.19092466705 -1.2465433277 0.017530159313 -0.1992912261 -1.2039211754 0.029568037458
          -0.20651664734 -1.1625065807 0.036499213545 -0.21547203424 -1.1212777494 0.04578694893
          -0.2226226046 -1.0804004183 0.055463924492 -0.23239714716 -1.0429826359 0.063120755258
          -0.24061438149 -1.0004851218 0.073189743328 -0.24902862838 -0.95896668939 0.082389834208
          -0.25648745619 -0.91753273697 0.095216365782 -0.26474328315 -0.87664297018 0.10108390185
          -0.23689019418 -1.2731523339 0.07112273643 -0.23738586452 -1.2220283486 0.079773761547
          -0.24557065354 -1.1831126553 0.088886424186 -0.25618783385 -1.1419099603 0.099056931814
          -0.26793407931 -1.1011563089 0.10572901793 -0.27139468026 -1.0622677132 0.11310229937
          -0.28263952276 -1.0208779693 0.12655737126 -0.29296907832 -0.98125580855 0.1355819545
          -0.29926269241 -0.93852153117 0.14219963676 -0.30381484078 -0.89609951784 0.15787503817
          0.13700539718 -1.1232849486 -0.39904739669 0.13683393801 -1.0870429539 -0.3897748174
          0.12837434998 -1.0456181737 -0.38018568254 0.11980916557 -1.0054491815 -0.37183301446
          0.1126959551 -0.96727397367 -0.36187453545 0.10391695741 -0.927504685 -0.35180292533
          0.095403414187 -0.88293599796 -0.34439863658 0.087121100661 -0.84472962518 -0.33410670237
          0.078440817586 -0.80185445683 -0.32542221174 0.072095151315 -0.75513546827 -0.31431272775
          0.10610533486 -1.1501569548 -0.34916644691 0.09669727699 -1.1075642789 -0.33973245239
          0.088051883483 -1.0672630274 -0.33019230359 0.0797300132 -1.026294211 -0.32110323904
          0.0710641451 -0.98549551738 -0.31166135197 0.063190706897 -0.94497784794 -0.30228964333
          0.054601728118 -0.90395047385 -0.29347298311 0.046988725631 -0.86398414115 -0.28384995124
          0.038126817432 -0.82396981809 -0.27507496626 0.030240931228 -0.78412470904 -0.26684903179
          0.064813075905 -1.1699050429 -0.29916788274 0.055413007446 -1.1280627968 -0.28862204988
          0.047477548773 -1.0875717733 -0.27976796743 0.038962027564 -1.0469743558 -0.270397116
          0.030966405789 -1.006462094 -0.26122699746 0.022799468441 -0.96614408622 -0.25177048983
          0.014990486244 -0.92485538502 -0.24269972332 0.0063785439569 -0.88425688226 -0.2337969855
          -0.0015022683889 -0.84307906717 -0.22388245185 -0.0105339014 -0.80330248615 -0.21546773141
          0.024040818588 -1.1900218959 -0.24850384297 0.015115782146 -1.149023439 -0.23800056862
          0.0072147367262 -1.1086666578 -0.22907062547 -0.0010476110148 -1.0669933249 -0.21996703303
          -0.0095244726728 -1.0271131885 -0.21089451849 -0.017577358583 -0.98610763336 -0.20145069515
          -0.026247749179 -0.94507105767 -0.19231439813 -0.033717448651 -0.90497120549 -0.18299410593
          -0.042062329736 -0.8638235366 -0.1734980502 -0.051063581318 -0.82368913141 -0.16533754633
          -0.016846285239 -1.2104981522 -0.19692428856 -0.024384532254 -1.1699376258 -0.18752716041
          -0.033466734905 -1.1293854749 -0.17849507255 -0.041544534496 -1.0884339356 -0.16906043455
          -0.049775770058 -1.0478105097 -0.16028559674 -0.058035790586 -1.006907561 -0.15089281251
          -0.065575935017 -0.96625783817 -0.14170961637 -0.074019349159 -0.92537500443 -0.1322839852
          -0.082850790961 -0.88486242997 -0.12311158805 -0.091405036066 -0.84328477913 -0.11352673483
          -0.057013014082 -1.2316807559 -0.14623815973 -0.065498508926 -1.1910879622 -0.13673079531
          -0.072886565679 -1.1494866148 -0.12770626132 -0.081729644698 -1.1090780447 -0.11854081387
          -0.090045437139 -1.0682583914 -0.10911505523 -0.09845858967 -1.0281602343 -0.1001798945
          -0.10627821536 -0.98712574233 -0.091232398627 -0.1153067127 -0.94627605515 -0.081579371925
          -0.12296920912 -0.90539675155 -0.072291453193 -0.13145322247 -0.86443386614 -0.062867770186
          -0.097656862644 -1.2527888769 -0.096238536824 -0.10578173456 -1.2118780671 -0.086561322193
          -0.11429325383 -1.1711877106 -0.077410459137 -0.12152904457 -1.1296819585 -0.067144542397
          -0.13059064953 -1.0884173423 -0.058329921168 -0.1394749238 -1.0489178282 -0.04998134923
          -0.14775573233 -1.0084683061 -0.04020430276 -0.15567290649 -0.96703167424 -0.031106557981
          -0.16374199343 -0.92620273524 -0.0218522176 -0.17213437529 -0.8853271972 -0.012624932987
          -0.13821753347 -1.2737266871 -0.045850362463 -0.14730583086 -1.2332982282 -0.035888964028
          -0.15505830708 -1.1918060393 -0.026571818056 -0.16268283467 -1.1510633065 -0.017431872019
          -0.17246898788 -1.1093102854 -0.0080749480548 -0.17960445656 -1.0693981386 0.0006790291165
          -0.18810880626 -1.0298390047 0.0097672739241 -0.19603225164 -0.98785741722 0.019111695316
          -0.20382630847 -0.94657386706 0.029263129465 -0.21334521724 -0.9057464494 0.03758592377
          -0.17871715674 -1.2932386107 0.0076202801256 -0.1870761086 -1.254381193 0.013686008257
          -0.19528529233 -1.2130795401 0.023300597178 -0.20418762296 -1.1716297504 0.032973858665
          -0.2111497216 -1.1308574984 0.043565470587 -0.22157926604 -1.0930629636 0.051298485647
          -0.22901286829 -1.0506938098 0.060468335254 -0.23725331201 -1.0096695369 0.069478727609
          -0.24570353823 -0.9683558448 0.078795832403 -0.25644641884 -0.92538481271 0.091548549675
          -0.22061504254 -1.3187731064 0.056270230207 -0.22663472918 -1.2738128062 0.065813362305
          -0.23929020186 -1.2352538959 0.074695979791 -0.2470906669 -1.1929791855 0.083551455255
          -0.25577699627 -1.1508671608 0.095736393335 -0.26112919379 -1.1118928072 0.10377211581
          -0.26932333444 -1.0712743109 0.11084422551 -0.27636398831 -1.0296236489 0.12138836295
          -0.28993400524 -0.98929634259 0.13007987238 -0.29441055758 -0.94867639781 0.13940689448
          0.15014262771 -1.1766727514 -0.41112471688 0.14581700021 -1.1388382639 -0.40248388583
          0.13857386155 -1.095845602 -0.3929994044 0.12904158203 -1.0548623858 -0.38366902749
          0.1224656352 -1.0149129827 -0.37466850743 0.11435332001 -0.97361218574 -0.36565189576
          0.10658878631 -0.93185685484 -0.35599506239 0.098694550961 -0.89298884634 -0.34686648747
          0.091895563812 -0.85117636752 -0.33767369997 0.08535067336 -0.80449739153 -0.32683763776
          0.11333137661 -1.1975957829 -0.3605583566 0.10645408809 -1.1575703272 -0.3517593188
          0.098705370411 -1.11750955 -0.34270871778 0.090340870512 -1.0766222702 -0.33351048961
          0.082078442029 -1.0355856433 -0.32421731296 0.074217338748 -0.9948122642 -0.3150489433
          0.066263164804 -0.95392804729 -0.30575508632 0.05800968024 -0.91333218943 -0.29684060022
          0.049602883821 -0.87293205809 -0.28718349085 0.042229394288 -0.830843896 -0.27774043393
          0.074109387543 -1.2187027698 -0.31126996648 0.066849240676 -1.1786349794 -0.3013194808
          0.05837893623 -1.137760939 -0.29241364962 0.049880323834 -1.0969277611 -0.28301213601
          0.041812322985 -1.0563093945 -0.27384845338 0.033783415546 -1.0156218103 -0.26460821383
          0.025792019206 -0.97463501199 -0.25535914176 0.017648386233 -0.93426295329 -0.24631245298
          0.0091223327928 -0.89328427836 -0.23698677596 0.0012565552255 -0.85121446847 -0.2273837294
          0.03480339781 -1.2405980665 -0.26029157174 0.026139599542 -1.1994394612 -0.25085566393
          0.018288028501 -1.1583423226 -0.24168451224 0.0097728707085 -1.1177837755 -0.23215681597
          0.0016092400921 -1.0770770793 -0.22310691155 -0.0065602267471 -1.0365611566 -0.21408529547
          -0.014602467835 -0.99552645189 -0.20490556863 -0.023111889786 -0.95475899774 -0.19566757556
          -0.031017684317 -0.91385327887 -0.18624661355 -0.039349743021 -0.873421625 -0.176740444
          -0.006444408737 -1.2612388553 -0.20964152962 -0.013879292381 -1.2205056479 -0.20022785452
          -0.022131613327 -1.1793847648 -0.19107465161 -0.030366296192 -1.1385363621 -0.18175892485
          -0.038643752246 -1.097879719 -0.17245268441 -0.046724183394 -1.0574739422 -0.16361102538
          -0.055063704751 -1.0164825302 -0.1541283368 -0.062932034007 -0.97554004253 -0.14503179545
          -0.07136560441 -0.93489302589 -0.13558640504 -0.080016332005 -0.89303466917 -0.12635814118
          -0.045995300318 -1.2821321207 -0.15932031234 -0.054315860673 -1.2413779536 -0.14963687589
          -0.06237943429 -1.2001068543 -0.14023190256 -0.070330893629 -1.1591412024 -0.13096056481
          -0.078775496376 -1.1186375001 -0.12180417292 -0.08715953842 -1.0784729734 -0.1129565855
          -0.095651822194 -1.0373860463 -0.10361057017 -0.10385104577 -0.99641176983 -0.094240934717