<?xml version="1.0"?>
<VTKFile type="UnstructuredGrid" version="0.1" byte_order="LittleEndian" compressor="vtkZLibDataCompressor">
  <UnstructuredGrid>
    <FieldData>
      <DataArray type="Float64" Name="TIME" NumberOfTuples="1" format="ascii" RangeMin="0.23741985129" RangeMax="0.23741985129">
        0.23741985129
      </DataArray>
    </FieldData>
    <Piece NumberOfPoints="1000" NumberOfCells="0">
      <PointData>
        <DataArray type="Float64" Name="Damage" format="ascii" RangeMin="0" RangeMax="0.49719101124">
          0 0 0 0 0 0
          0 0 0 0 0 0.027932960894
          0 0 0 0 0 0
          0.027932960894 0 0 0.055084745763 0.071428571429 0.040345821326
          0.014164305949 0.012987012987 0.040345821326 0.071428571429 0.055084745763 0
          0 0.067669172932 0.11239193084 0.1074168798 0.037688442211 0.034562211982
          0.1074168798 0.11239193084 0.067669172932 0 0 0.074349442379
          0.16147308782 0.16834170854 0.12376237624 0.11286681716 0.16834170854 0.16147308782
          0.074349442379 0 0 0.084459459459 0.2 0.25806451613
          0.33860045147 0.39211618257 0.25806451613 0.2 0.084459459459 0
          0 0.093984962406 0.25360230548 0.36061381074 0.41959798995 0.46774193548
          0.36061381074 0.25360230548 0.093984962406 0 0 0.10593220339
          0.31493506494 0.40057636888 0.4447592068 0.49090909091 0.40057636888 0.31493506494
          0.10593220339 0 0 0.16759776536 0.3686440678 0.43984962406
          0.44609665428 0.49662162162 0.43984962406 0.3686440678 0.16759776536 0
          0 0.1677852349 0.36734693878 0.43891402715 0.44642857143 0.49593495935
          0.43891402715 0.36734693878 0.1677852349 0 0 0
          0 0 0 0 0 0
          0 0 0 0.027906976744 0 0
          0 0 0 0 0.027906976744 0
          0 0.056338028169 0.072776280323 0.040669856459 0.014117647059 0.012931034483
          0.040669856459 0.072776280323 0.056338028169 0 0 0.06875
          0.11483253589 0.10828025478 0.0375782881 0.034416826004 0.10828025478 0.11483253589
          0.06875 0 0 0.074303405573 0.16235294118 0.16910229645
          0.12371134021 0.11257035647 0.16910229645 0.16235294118 0.074303405573 0
          0 0.084269662921 0.20043103448 0.25812619503 0.33771106942 0.39242685026
          0.25812619503 0.20043103448 0.084269662921 0 0 0.09375
          0.25358851675 0.36093418259 0.41962421712 0.46845124283 0.36093418259 0.25358851675
          0.09375 0 0 0.10563380282 0.3153638814 0.4019138756
          0.44470588235 0.49137931034 0.4019138756 0.3153638814 0.10563380282 0
          0 0.16744186047 0.36971830986 0.440625 0.44582043344 0.49719101124
          0.440625 0.36971830986 0.16744186047 0 0 0.16759776536
          0.3686440678 0.43984962406 0.44609665428 0.49662162162 0.43984962406 0.3686440678
          0.16759776536 0 0 0 0 0
          0 0 0 0 0 0
          0 0.024647887324 0 0 0 0
          0 0 0.024647887324 0 0 0.051212938005
          0.06875 0.038817005545 0.012635379061 0.011666666667 0.038817005545 0.06875
          0.051212938005 0 0 0.064593301435 0.10905730129 0.10491803279
          0.036858974359 0.034023668639 0.10491803279 0.10905730129 0.064593301435 0
          0 0.070588235294 0.15523465704 0.16506410256 0.12283464567 0.11271676301
          0.16506410256 0.15523465704 0.070588235294 0 0 0.081896551724
          0.19333333333 0.25443786982 0.33959537572 0.38985313752 0.25443786982 0.19333333333
          0.081896551724 0 0 0.093301435407 0.24768946396 0.35573770492
          0.41987179487 0.46449704142 0.35573770492 0.24768946396 0.093301435407 0
          0 0.10781671159 0.30833333333 0.39556377079 0.4440433213 0.48666666667
          0.39556377079 0.30833333333 0.10781671159 0 0 0.16197183099
          0.35579514825 0.43062200957 0.44470588235 0.49137931034 0.43062200957 0.35579514825
          0.16197183099 0 0 0.16101694915 0.3538961039 0.42939481268
          0.4447592068 0.49090909091 0.42939481268 0.3538961039 0.16101694915 0
          0 0 0 0 0 0
          0 0 0 0 0 0.025
          0 0 0 0 0 0
          0.025 0 0 0.05023923445 0.068391866913 0.039344262295
          0.012820512821 0.011834319527 0.039344262295 0.068391866913 0.05023923445 0
          0 0.063694267516 0.10819672131 0.10465116279 0.036984352774 0.034120734908
          0.10465116279 0.10819672131 0.063694267516 0 0 0.070981210856
          0.15544871795 0.16500711238 0.12290502793 0.11282051282 0.16500711238 0.15544871795
          0.070981210856 0 0 0.082217973231 0.19378698225 0.25459317585
          0.33974358974 0.38981042654 0.25459317585 0.19378698225 0.082217973231 0
          0 0.093418259023 0.24918032787 0.35610465116 0.41963015647 0.46456692913
          0.35610465116 0.24918032787 0.093418259023 0 0 0.10765550239
          0.30868761553 0.39508196721 0.44391025641 0.48668639053 0.39508196721 0.30868761553
          0.10765550239 0 0 0.1625 0.35645933014 0.43099787686
          0.44467640919 0.4913957935 0.43099787686 0.35645933014 0.1625 0
          0 0.16165413534 0.35446685879 0.42966751918 0.44472361809 0.49078341014
          0.42966751918 0.35446685879 0.16165413534 0 0 0
          0 0 0 0 0 0
          0 0 0 0.02786377709 0 0
          0 0 0 0 0.02786377709 0
          0 0.054117647059 0.070397111913 0.040064102564 0.014173228346 0.013005780347
          0.040064102564 0.070397111913 0.054117647059 0 0 0.066805845511
          0.11057692308 0.106685633 0.037709497207 0.034615384615 0.106685633 0.11057692308
          0.066805845511 0 0 0.074226804124 0.16062992126 0.16759776536
          0.12362637363 0.11292346299 0.16759776536 0.16062992126 0.074226804124 0
          0 0.084427767355 0.19942196532 0.25769230769 0.33877038896 0.39145496536
          0.25769230769 0.19942196532 0.084427767355 0 0 0.093945720251
          0.25320512821 0.35988620199 0.41899441341 0.46666666667 0.35988620199 0.25320512821
          0.093945720251 0 0 0.10588235294 0.31407942238 0.39903846154
          0.44409448819 0.48988439306 0.39903846154 0.31407942238 0.10588235294 0
          0 0.16718266254 0.36705882353 0.43841336117 0.44536082474 0.49530956848
          0.43841336117 0.36705882353 0.16718266254 0 0 0.16728624535
          0.36543909348 0.43718592965 0.44554455446 0.49435665914 0.43718592965 0.36543909348
          0.16728624535 0 0 0 0 0
          0 0 0 0 0 0
          0 0.025280898876 0 0 0 0
          0 0 0.025280898876 0 0 0.049568965517
          0.066666666667 0.038461538462 0.013005780347 0.012016021362 0.038461538462 0.066666666667
          0.049568965517 0 0 0.06309751434 0.1050295858 0.10367454068
          0.037179487179 0.034360189573 0.10367454068 0.1050295858 0.06309751434 0
          0 0.071294559099 0.15462427746 0.1641025641 0.12296110414 0.11316397229
          0.1641025641 0.15462427746 0.071294559099 0 0 0.082616179002
          0.19359145527 0.25473933649 0.34064665127 0.38930481283 0.25473933649 0.19359145527
          0.082616179002 0 0 0.093690248566 0.24852071006 0.35564304462
          0.41923076923 0.46327014218 0.35564304462 0.24852071006 0.093690248566 0
          0 0.10775862069 0.30833333333 0.39349112426 0.4436416185 0.48598130841
          0.39349112426 0.30833333333 0.10775862069 0 0 0.16292134831
          0.35560344828 0.43021032505 0.44465290807 0.49053356282 0.43021032505 0.35560344828
          0.16292134831 0 0 0.16216216216 0.35324675325 0.42857142857
          0.44469525959 0.48962655602 0.42857142857 0.35324675325 0.16216216216 0
          0 0 0 0 0 0
          0 0 0 0 0 0.025
          0 0 0 0 0 0
          0.025 0 0 0.05023923445 0.068391866913 0.039344262295
          0.012820512821 0.011834319527 0.039344262295 0.068391866913 0.05023923445 0
          0 0.063694267516 0.10819672131 0.10465116279 0.036984352774 0.034120734908
          0.10465116279 0.10819672131 0.063694267516 0 0 0.070981210856
          0.15544871795 0.16500711238 0.12290502793 0.11282051282 0.16500711238 0.15544871795
          0.070981210856 0 0 0.082217973231 0.19378698225 0.25459317585
          0.33974358974 0.38981042654 0.25459317585 0.19378698225 0.082217973231 0
          0 0.093418259023 0.24918032787 0.35610465116 0.41963015647 0.46456692913
          0.35610465116 0.24918032787 0.093418259023 0 0 0.10765550239
          0.30868761553 0.39508196721 0.44391025641 0.48668639053 0.39508196721 0.30868761553
          0.10765550239 0 0 0.1625 0.35645933014 0.43099787686
          0.44467640919 0.4913957935 0.43099787686 0.35645933014 0.1625 0
          0 0.16165413534 0.35446685879 0.42966751918 0.44472361809 0.49078341014
          0.42966751918 0.35446685879 0.16165413534 0 0 0
          0 0 0 0 0 0
          0 0 0 0.024647887324 0 0
          0 0 0 0 0.024647887324 0
          0 0.051212938005 0.06875 0.038817005545 0.012635379061 0.011666666667
          0.038817005545 0.06875 0.051212938005 0 0 0.064593301435
          0.10905730129 0.10491803279 0.036858974359 0.034023668639 0.10491803279 0.10905730129
          0.064593301435 0 0 0.070588235294 0.15523465704 0.16506410256
          0.12283464567 0.11271676301 0.16506410256 0.15523465704 0.070588235294 0
          0 0.081896551724 0.19333333333 0.25443786982 0.33959537572 0.38985313752
          0.25443786982 0.19333333333 0.081896551724 0 0 0.093301435407
          0.24768946396 0.35573770492 0.41987179487 0.46449704142 0.35573770492 0.24768946396
          0.093301435407 0 0 0.10781671159 0.30833333333 0.39556377079
          0.4440433213 0.48666666667 0.39556377079 0.30833333333 0.10781671159 0
          0 0.16197183099 0.35579514825 0.43062200957 0.44470588235 0.49137931034
          0.43062200957 0.35579514825 0.16197183099 0 0 0.16101694915
          0.3538961039 0.42939481268 0.4447592068 0.49090909091 0.42939481268 0.3538961039
          0.16101694915 0 0 0 0 0
          0 0 0 0 0 0
          0 0.027906976744 0 0 0 0
          0 0 0.027906976744 0 0 0.056338028169
          0.072776280323 0.040669856459 0.014117647059 0.012931034483 0.040669856459 0.072776280323
          0.056338028169 0 0 0.06875 0.11483253589 0.10828025478
          0.0375782881 0.034416826004 0.10828025478 0.11483253589 0.06875 0
          0 0.074303405573 0.16235294118 0.16910229645 0.12371134021 0.11257035647
          0.16910229645 0.16235294118 0.074303405573 0 0 0.084269662921
          0.20043103448 0.25812619503 0.33771106942 0.39242685026 0.25812619503 0.20043103448
          0.084269662921 0 0 0.09375 0.25358851675 0.36093418259
          0.41962421712 0.46845124283 0.36093418259 0.25358851675 0.09375 0
          0 0.10563380282 0.3153638814 0.4019138756 0.44470588235 0.49137931034
          0.4019138756 0.3153638814 0.10563380282 0 0 0.16744186047
          0.36971830986 0.440625 0.44582043344 0.49719101124 0.440625 0.36971830986
          0.16744186047 0 0 0.16759776536 0.3686440678 0.43984962406
          0.44609665428 0.49662162162 0.43984962406 0.3686440678 0.16759776536 0
          0 0 0 0 0 0
          0 0 0 0 0 0.027932960894
          0 0 0 0 0 0
          0.027932960894 0 0 0.055084745763 0.071428571429 0.040345821326
          0.014164305949 0.012987012987 0.040345821326 0.071428571429 0.055084745763 0
          0 0.067669172932 0.11239193084 0.1074168798 0.037688442211 0.034562211982
          0.1074168798 0.11239193084 0.067669172932 0 0 0.074349442379
          0.16147308782 0.16834170854 0.12376237624 0.11286681716 0.16834170854 0.16147308782
          0.074349442379 0 0 0.084459459459 0.2 0.25806451613
          0.33860045147 0.39211618257 0.25806451613 0.2 0.084459459459 0
          0 0.093984962406 0.25360230548 0.36061381074 0.41959798995 0.46774193548
          0.36061381074 0.25360230548 0.093984962406 0 0 0.10593220339
          0.31493506494 0.40057636888 0.4447592068 0.49090909091 0.40057636888 0.31493506494
          0.10593220339 0 0 0.16759776536 0.3686440678 0.43984962406
          0.44609665428 0.49662162162 0.43984962406 0.3686440678 0.16759776536 0
          0 0.1677852349 0.36734693878 0.43891402715 0.44642857143 0.49593495935
          0.43891402715 0.36734693878 0.1677852349 0
        </DataArray>
        <DataArray type="Float64" Name="Displacement" NumberOfComponents="3" format="ascii" RangeMin="1.69928893" RangeMax="1.719816888">
          -0.0016629818546 1.7025382103 -0.0077966831283 -0.0036166752223 1.7060363542 -0.0079926434171
          -0.0038299616078 1.7082045726 -0.0088876831775 -0.0038493539344 1.7069950793 -0.0077493180026
          -0.0037150982147 1.7067521043 -0.0077052678599 -0.0038067242972 1.7066275581 -0.0078577159052
          -0.0037988438134 1.7063929444 -0.0077485177324 -0.0038416947547 1.7071383483 -0.0088372852259
          -0.0041186064001 1.7047077886 -0.0079821849928 -0.0061401175793 1.7006426859 -0.0078466774524
          -0.0037006426904 1.7071948697 -0.0094883610641 -0.0053986935016 1.7099425973 -0.0096563925388
          -0.0034686914346 1.7081482798 -0.0095231577806 -0.0034120466037 1.7085554259 -0.0099034601541
          -0.003721705901 1.7087054069 -0.01009314943 -0.003507721727 1.7085637125 -0.010075273913
          -0.0038268598279 1.7080757504 -0.010019828027 -0.0037071871045 1.7070296884 -0.0094272442997
          -0.0018113479256 1.7084251059 -0.0095641847726 -0.0036763920787 1.7053763021 -0.0094775150039
          -0.0028652567106 1.7089085797 -0.010636694895 -0.0033548676546 1.7085571573 -0.010328743848
          -0.0032127548978 1.7081587802 -0.009721112335 -0.0036042565543 1.7085381253 -0.0098770095136
          -0.0034705770673 1.7079603508 -0.0095995444319 -0.0033836508933 1.7079255434 -0.0095322931227
          -0.0032001286395 1.7078760841 -0.0098588544031 -0.003594569525 1.7071430282 -0.0096918118056
          -0.0035085380892 1.7071600551 -0.010389998064 -0.0039674168544 1.7071199425 -0.010630038508
          -0.0032332346068 1.7090126429 -0.0106119294 -0.0031579911559 1.7084602035 -0.010615857056
          -0.0034326096737 1.7088316807 -0.010041991825 -0.0033184121542 1.7085097511 -0.010314680564
          -0.0031776009466 1.7081531883 -0.0098939186762 -0.003154581125 1.7080557498 -0.0098891695163
          -0.0029663147546 1.7077986439 -0.010171254365 -0.0029384721802 1.7078523237 -0.010011437187
          -0.0032926915331 1.7070281802 -0.010606447995 -0.0031660947493 1.7072309625 -0.01060908005
          -0.0026460438985 1.708998305 -0.011191215877 -0.0027623389272 1.7087852292 -0.010980514657
          -0.0031885959885 1.7087310107 -0.010697938629 -0.0026869574787 1.7090468764 -0.010458192063
          -0.0034491538861 1.708229722 -0.010687115283 -0.0030357918567 1.7082569793 -0.010304229524
          -0.0032641837555 1.7083918057 -0.0103826844 -0.0028079967152 1.7077402196 -0.010668495968
          -0.0032533564049 1.707396292 -0.010980627739 -0.0033520271055 1.7072298251 -0.011157143242
          -0.0021173702774 1.7091134408 -0.011434811816 -0.0022211940983 1.7087194755 -0.010982431605
          -0.0028434654711 1.7084872264 -0.011158629779 -0.0027704047664 1.7087198198 -0.010924709556
          -0.0024475796775 1.7081405778 -0.010109601244 -0.0032218600265 1.7080624432 -0.0099846706655
          -0.0028617004474 1.7080258834 -0.01081923539 -0.0027766994178 1.7074961401 -0.011100736494
          -0.0033964978819 1.7073379102 -0.010964764212 -0.0034857717895 1.7074007948 -0.011361253021
          -0.002219321299 1.7085912432 -0.011632494331 -0.0028681666754 1.7086761295 -0.010832515898
          -0.0032601081943 1.7091342274 -0.010136935577 -0.0030012499421 1.7086404238 -0.010689607025
          -0.0031801750562 1.7080935781 -0.011171086937 -0.0019273976987 1.7078792436 -0.011253292774
          -0.0021753125502 1.7080503139 -0.010673187528 -0.0019319990375 1.7081455291 -0.010107037424
          -0.0023781011825 1.7072915766 -0.010829019754 -0.0029272295664 1.706815634 -0.011531446008
          -0.0017718426229 1.7076736718 -0.01262296319 -0.0050534528445 1.7090250613 -0.0091469488526
          -0.0012458281906 1.7087311031 -0.010969601177 0.0019914100948 1.7090828992 -0.0089177046757
          0.00011244200757 1.7079714267 -0.0085216267426 -0.0048538380822 1.7077699138 -0.0085521451219
          -0.0068079783106 1.7085113387 -0.0088706655643 -0.0035529782301 1.7077395938 -0.010940427051
          0.00026601416756 1.7076141049 -0.0091158341405 -0.0030270753148 1.7058756865 -0.012640380664
          -0.0040377181982 1.7090882527 -0.010639014442 0.00047473831599 1.7074492774 -0.015344218105
          -0.0031035167878 1.706666106 -0.013041961132 -0.0042406971286 1.707656583 -0.013280532108
          -0.002809955557 1.7070599663 -0.013577815474 -0.0016795786263 1.7067535728 -0.013523024717
          -2.7161019366e-05 1.7070228524 -0.013280331223 -0.0013241643699 1.7056459199 -0.013013777542
          -0.0050029368402 1.7060976932 -0.015370288885 -0.00022591365376 1.7073254855 -0.010487724471
          -0.0016716504779 1.7166735041 -0.0037445993873 -0.002053291042 1.7087201576 -0.011480707946
          0.00057253432499 1.7105088518 -0.0088932148931 -0.00038312074972 1.7110513171 -0.0076432356408
          -0.00089321307412 1.6994293509 -0.017673449213 -0.0033586795838 1.6991952417 -0.017524761637
          -0.0036700884241 1.7105762942 -0.0074881128236 -0.0045453202255 1.7095151963 -0.0088436165676
          -0.0018832217463 1.7074988682 -0.011225063387 -0.0021220049671 1.7148005868 -0.0036103153224
          -0.002961382571 1.7075824969 -0.0085014033308 -0.0021793049486 1.7082134036 -0.0096747407992
          -0.0035794926418 1.7086262578 -0.008855491413 -0.0033856431372 1.7088336114 -0.0096086431139
          -0.0037399069477 1.7089887359 -0.0097033671953 -0.0037938700563 1.7087577569 -0.0097853383693
          -0.0042049483787 1.708315903 -0.0097412965619 -0.0040371408326 1.707499895 -0.0087702598393
          -0.0054452139956 1.7068040883 -0.0096683083091 -0.0047901354387 1.705776583 -0.0084698434401
          -0.0030717501589 1.7101693263 -0.011442241027 -0.0036298671001 1.708949552 -0.010104464181
          -0.0036645216195 1.7086076551 -0.0092998589373 -0.0036453356425 1.7090006742 -0.0098482004794
          -0.0036228709807 1.7088824078 -0.0098450660906 -0.00351337699 1.7083921634 -0.0095268843544
          -0.0035681361089 1.7084716536 -0.0099219352751 -0.0035298240943 1.7076361983 -0.0092998544543
          -0.0035356659402 1.7075681411 -0.010095715579 -0.0040792406584 1.7083780296 -0.011356706883
          -0.0041589211508 1.70870854 -0.0092535772617 -0.003428390969 1.7090918913 -0.01012149943
          -0.00345912363 1.7088986385 -0.0099583305947 -0.0034866843441 1.7088405003 -0.0097687480735
          -0.0034238824401 1.7087162965 -0.0098579888871 -0.0033620435563 1.708554002 -0.0098751183116
          -0.0033077134242 1.7082733569 -0.0098014376461 -0.0033394302504 1.7078973711 -0.0099483123813
          -0.0033777256457 1.7076953735 -0.010109296384 -0.0026709334872 1.7069307279 -0.0092964127035
          -0.003041121867 1.709232682 -0.0098308665972 -0.0032821269762 1.7089112963 -0.010022036116
          -0.0033338110344 1.7090928506 -0.010224316887 -0.0030786785724 1.709122613 -0.010585071311
          -0.0031965310347 1.7088356971 -0.010314830662 -0.003238599412 1.7086201145 -0.01026235483
          -0.0033316360874 1.7085373221 -0.010598110087 -0.0030584767487 1.7080950315 -0.010212594819
          -0.0031060025795 1.7075202098 -0.0099994147337 -0.0033498423622 1.7073869022 -0.009856632133
          -0.002824392441 1.7086622115 -0.010352129545 -0.00310136235 1.7092079488 -0.010164213589
          -0.0030800205134 1.7089892021 -0.01063201934 -0.0030991703325 1.7088696697 -0.010439358315
          -0.0030714535316 1.7087219413 -0.010278898779 -0.0029084483129 1.7085147011 -0.010237781472
          -0.0029135240068 1.7082566604 -0.010460111646 -0.0028993549128 1.7079810016 -0.010606223191
          -0.0028795059902 1.7078178203 -0.010127727304 -0.0031742953179 1.7068203006 -0.010349465369
          -0.003067987533 1.708716423 -0.010994757557 -0.0031982417401 1.7090311074 -0.010530815844
          -0.0029183380317 1.7089610209 -0.01072713108 -0.0031710478635 1.7087351533 -0.010714668728
          -0.0029116456054 1.7087973196 -0.010283721084 -0.0026410661519 1.708570469 -0.0102702377
          -0.0024260220642 1.7081054485 -0.010725190761 -0.0026532170366 1.7079416393 -0.010720984562
          -0.0023886819365 1.7076343442 -0.010519466116 -0.0025152493827 1.7069010238 -0.010993966166
          -0.0025356269137 1.7093416408 -0.011278117976 -0.0031553663951 1.7088555564 -0.010950597918
          -0.0030405890882 1.7089235584 -0.011080678336 -0.003138479895 1.7088786718 -0.010902023264
          -0.0031511220775 1.7086393236 -0.01093780328 -0.0020331843247 1.7084526708 -0.010938999807
          -0.0020318767398 1.7082888849 -0.010844775384 -0.0021178210002 1.7079225402 -0.011033834169
          -0.0020483865041 1.7074681793 -0.010930776806 -0.0026432561384 1.7075366205 -0.011276923451
          -0.0037137246784 1.7090709851 -0.010139696639 -0.0029116295633 1.7092726415 -0.01089081497
          -0.0031324628568 1.7093194115 -0.010632836053 -0.0041877777546 1.7092628821 -0.010946464087
          -0.0029266553945 1.7077446641 -0.011193522017 -0.0018775022593 1.7075349528 -0.011180323799
          -0.0006092635949 1.7086605735 -0.010912841883 -0.0016827041615 1.7083224438 -0.010614924061
          -0.0018785495557 1.7078643179 -0.010858167236 -0.0010547317497 1.707285306 -0.0101013061
          -0.002872957285 1.7077298527 -0.011747512729 -0.0024582825175 1.7102697159 -0.01026777403
          -0.0029167462264 1.7091026858 -0.010948744623 -0.0038601105031 1.7094357042 -0.010937656396
          -0.0031932393711 1.7081630679 -0.011259335704 -0.0010965979705 1.7080024625 -0.011297803348
          -0.00051316710516 1.7088258703 -0.010921905632 -0.0014570499125 1.7081135288 -0.01093291181
          -0.0019142915692 1.7088892601 -0.010243839575 -0.0014774157044 1.7058530289 -0.011795777494
          0.0024745224717 1.7127019525 -0.012701798 -0.0073136512314 1.7070871777 -0.010764435941
          -0.0041149509967 1.7095668411 -0.010233507966 -0.0037458668343 1.7087635276 -0.011582477601
          0.0017798907644 1.703622053 -0.010228935931 -0.0057556654039 1.7033424246 -0.010267749223
          -0.00017239979252 1.7081352854 -0.011589884342 0.0001066615506 1.708563624 -0.010128453348
          0.0032796574212 1.7057011113 -0.010659712252 -0.0062992252654 1.7108306693 -0.01256011273
          -0.0037455546202 1.7100070776 -0.0095170142151 -0.0033937674834 1.7092690732 -0.0095525777114
          -0.0036349639627 1.7087643638 -0.0086875043869 -0.0039238272988 1.7095602383 -0.0095097600298
          -0.0037612794361 1.7090353102 -0.0093359770655 -0.0038885954209 1.7087022419 -0.0090922916996
          -0.0037278941706 1.7089235252 -0.0094752745067 -0.0039528539182 1.7077666414 -0.0086527261131
          -0.0042539226743 1.7077885687 -0.009571380911 -0.0039270524275 1.7081484582 -0.0095537269166
          -0.0030247174265 1.7082912269 -0.0098598494279 -0.0030123755042 1.7086969553 -0.0095738054422
          -0.0037600245363 1.7098604506 -0.0098658388591 -0.0035668906319 1.7091331 -0.0096184923404
          -0.0035817570048 1.7089807642 -0.0096242815754 -0.0036187215874 1.7087300478 -0.0096271285268
          -0.0036068303222 1.7085538922 -0.0096071657297 -0.0034500733087 1.7088392912 -0.009869540364
          -0.0041972357643 1.7073015326 -0.0095678550615 -0.0042591842126 1.7063791542 -0.0098510560693
          -0.0033755865431 1.7088959772 -0.0098303392117 -0.0036887684102 1.7094463803 -0.0098205365593
          -0.0033961572983 1.7092435914 -0.0099215214817 -0.0033250764863 1.7091887146 -0.0099333376824
          -0.0034007549347 1.7090787945 -0.0098684507436 -0.0033802836114 1.7088346644 -0.0099202983217
          -0.0034705406885 1.7085813907 -0.0099322079852 -0.0034092006596 1.7082406709 -0.0099004006442
          -0.0031026668426 1.7080321177 -0.0098038470886 -0.0034328557859 1.7070672042 -0.0098242523326
          -0.0033752471651 1.7092282193 -0.0099804220098 -0.0033817114598 1.7093952148 -0.010195653221
          -0.0032292882292 1.7091946105 -0.010198961092 -0.0032060085136 1.7091123744 -0.010183799563
          -0.0031886191882 1.7090139661 -0.010203002573 -0.0032437080633 1.7088407381 -0.010158264322
          -0.0031957696819 1.7085377219 -0.010200765378 -0.0031833751128 1.7082011385 -0.010178386211
          -0.0029883106526 1.7079859679 -0.010160167984 -0.0030240421229 1.7074075621 -0.009976099888
          -0.0034437605008 1.7090184166 -0.010118136471 -0.0031480501944 1.709350463 -0.010425289238
          -0.0032203852941 1.7091518558 -0.010409674669 -0.0031162712528 1.7090831434 -0.010455024378
          -0.0029986938655 1.7089015814 -0.010392083063 -0.002996579086 1.7087875726 -0.010330304668
          -0.0028871373276 1.7084717298 -0.010443773058 -0.0027674434078 1.7081438066 -0.01039475934
          -0.0028282467131 1.7079427406 -0.010414251995 -0.0025532502927 1.7072000862 -0.010123351503
          -0.0033918233881 1.7093323802 -0.010465646302 -0.0034489206677 1.7091522974 -0.010587974781
          -0.0031036191042 1.7090595429 -0.010701496166 -0.0029958202026 1.7089990956 -0.010667297284
          -0.0030343712004 1.7089413575 -0.010656901796 -0.0025795673075 1.7087482075 -0.010638000254
          -0.0025791010414 1.7083754966 -0.010663137993 -0.0024730259663 1.7080425195 -0.010689230491
          -0.0021267389179 1.7077467081 -0.010578118872 -0.002204751904 1.7075043434 -0.010487024837
          -0.003692538297 1.7092486764 -0.010428591731 -0.002969890794 1.7091797079 -0.011052474136
          -0.0031828340155 1.7091549612 -0.010870330214 -0.002874632057 1.709083992 -0.010814810564
          -0.0040193025071 1.7092266271 -0.011389476727 -0.0011559846587 1.709016004 -0.011396307198
          -0.0023081812081 1.7084779571 -0.010801529955 -0.0019982358857 1.708144721 -0.010852143061
          -0.0021539130681 1.7077572896 -0.011008448777 -0.0015006355919 1.7074524733 -0.010433427746
          -0.0029835711182 1.7095142225 -0.01099291122 -0.0034386004509 1.7088686801 -0.011250200585
          -0.003019612884 1.7092593671 -0.010945822383 -0.0034219903554 1.7094634505 -0.010891556845
          -0.0034567030615 1.7095761449 -0.011135481127 -0.0013585576208 1.7093260795 -0.011151099017
          -0.0013723914769 1.7088492177 -0.010882567688 -0.0017442972229 1.7082488675 -0.010938519812
          -0.0013489619987 1.7074615453 -0.011229530548 -0.001818306597 1.7077252302 -0.011016917058
          -0.0031217614915 1.7101882437 -0.011635623947 -0.0022149279301 1.7089467767 -0.01212043109
          -0.0036092138398 1.7089343533 -0.011226511739 -0.0037647068305 1.7094416986 -0.011230871385
          -0.0035562319257 1.7100040751 -0.011259914001 -0.00083264428838 1.7097725983 -0.011262132813
          -0.00067669821528 1.7088295888 -0.011204887669 -0.00083259198826 1.7079444306 -0.011214838461
          -0.0021545231002 1.707569528 -0.012078319809 -0.0012755545438 1.7084175644 -0.01162514624
          -0.0032219294282 1.7099030638 -0.012586730342 -0.0053530736117 1.7081820444 -0.011452804695
          -0.0051089557478 1.707348503 -0.012820845559 -0.006759139179 1.7095611849 -0.012614351328
          -0.0016817007711 1.7083894404 -0.012663466987 -0.0022669547838 1.708167263 -0.012668726136
          0.0027984431221 1.7089811019 -0.012567456459 0.001139569018 1.7063751415 -0.012754884564
          0.0014975430431 1.7067426344 -0.011440617643 -0.0009312174183 1.7083177288 -0.012508701865
          -0.0034441099749 1.7096646854 -0.0094882758545 -0.0031050416255 1.7092664782 -0.0094082816345
          -0.0036957234035 1.709679703 -0.0092221710343 -0.0035141613217 1.7091571913 -0.009062127427
          -0.0037536716292 1.7093863148 -0.0093884595223 -0.0038143150686 1.7091535347 -0.0093445570093
          -0.0041235190026 1.7085302654 -0.0090526731361 -0.0039155273957 1.7086902495 -0.009235925994
          -0.0045075900462 1.7078215737 -0.0093985908099 -0.004177981564 1.7078124768 -0.009470343794
          -0.0031930878489 1.7094888899 -0.010082132997 -0.0035661791851 1.7097612182 -0.0097336107142
          -0.0034897288619 1.7095804857 -0.0095840788091 -0.0035185572014 1.7093971011 -0.0095870117833
          -0.0035829211779 1.7093162784 -0.0095811351717 -0.0036116864351 1.7091424127 -0.0095946888636
          -0.0036613130593 1.7087905712 -0.0095989786346 -0.0037000122985 1.7085465532 -0.0095614711611
          -0.0036014888489 1.7083738026 -0.0097166534547 -0.0040078769725 1.7076063059 -0.01007293897
          -0.0034266333267 1.7093781406 -0.0096823142561 -0.0033063011319 1.7094580284 -0.0098765975773
          -0.0032672016751 1.7094841397 -0.0098419109988 -0.0033247911979 1.709382223 -0.0098693170273
          -0.0034038897071 1.7093282534 -0.0098175164985 -0.0034255308924 1.7091174186 -0.0098275500469
          -0.0034727606816 1.7088073518 -0.0098606519809 -0.0035205071023 1.7084749971 -0.0098352588108
          -0.0034936499123 1.7080371828 -0.0098567023982 -0.0033220708156 1.707590329 -0.0096599087744
          -0.003048945063 1.7092275643 -0.010110767699 -0.0031840493486 1.7094633966 -0.010123632167
          -0.003246431314 1.7094471049 -0.01019020579 -0.0031856372672 1.7093781859 -0.010160135137
          -0.0032214135645 1.7092555151 -0.010095176185 -0.0032601531191 1.7090936491 -0.010130960049
          -0.0032451711852 1.7087632488 -0.010160713604 -0.0031448139506 1.7084467587 -0.010197398128
          -0.0032253539462 1.7080525763 -0.010116465035 -0.0033126806299 1.707439209 -0.010080987353
          -0.0032336396201 1.7099150062 -0.010474393148 -0.0032733553878 1.7094656306 -0.010362424931
          -0.0031059034583 1.7094767239 -0.010461227894 -0.003127096781 1.7092745337 -0.010486961303
          -0.0030590162956 1.7092143192 -0.010405322975 -0.0030258756655 1.7090156762 -0.010437432287
          -0.0029023044942 1.70865582 -0.010508363036 -0.0028781671602 1.7084823506 -0.010461227077