<?xml version="1.0"?>
<VTKFile type="UnstructuredGrid" version="0.1" byte_order="LittleEndian" compressor="vtkZLibDataCompressor">
  <UnstructuredGrid>
    <FieldData>
      <DataArray type="Float64" Name="TIME" NumberOfTuples="1" format="ascii" RangeMin="0.7744394825" RangeMax="0.7744394825">
        0.7744394825
      </DataArray>
    </FieldData>
    <Piece NumberOfPoints="1000" NumberOfCells="0">
      <PointData>
        <DataArray type="Float64" Name="Damage" format="ascii" RangeMin="0" RangeMax="0.50406504065">
          0 0 0 0 0 0
          0 0 0 0 0 0.027932960894
          0 0 0 0 0 0
          0.027932960894 0 0 0.055084745763 0.071428571429 0.040345821326
          0.014164305949 0.012987012987 0.040345821326 0.071428571429 0.055084745763 0
          0 0.067669172932 0.11239193084 0.1074168798 0.037688442211 0.034562211982
          0.1074168798 0.11239193084 0.067669172932 0 0 0.074349442379
          0.16147308782 0.16834170854 0.12376237624 0.11286681716 0.16834170854 0.16147308782
          0.074349442379 0 0 0.084459459459 0.2 0.25806451613
          0.33860045147 0.39211618257 0.25806451613 0.2 0.084459459459 0
          0 0.093984962406 0.25360230548 0.36061381074 0.41959798995 0.46774193548
          0.36061381074 0.25360230548 0.093984962406 0 0 0.10593220339
          0.31493506494 0.40057636888 0.4447592068 0.49090909091 0.40057636888 0.31493506494
          0.10593220339 0 0 0.17318435754 0.3686440678 0.43984962406
          0.44981412639 0.5 0.43984962406 0.3686440678 0.17318435754 0
          0.016129032258 0.18791946309 0.36734693878 0.44343891403 0.45535714286 0.50406504065
          0.44343891403 0.36734693878 0.18791946309 0.008064516129 0 0
          0 0 0 0 0 0
          0 0 0 0.027906976744 0 0
          0 0 0 0 0.027906976744 0
          0 0.056338028169 0.072776280323 0.040669856459 0.014117647059 0.012931034483
          0.040669856459 0.072776280323 0.056338028169 0 0 0.06875
          0.11483253589 0.10828025478 0.0375782881 0.034416826004 0.10828025478 0.11483253589
          0.06875 0 0 0.074303405573 0.16235294118 0.16910229645
          0.12371134021 0.11257035647 0.16910229645 0.16235294118 0.074303405573 0
          0 0.084269662921 0.20043103448 0.25812619503 0.33771106942 0.39242685026
          0.25812619503 0.20043103448 0.084269662921 0 0 0.09375
          0.25358851675 0.36093418259 0.41962421712 0.46845124283 0.36093418259 0.25358851675
          0.09375 0 0 0.10563380282 0.3153638814 0.4019138756
          0.44470588235 0.49137931034 0.4019138756 0.3153638814 0.10563380282 0
          0 0.16744186047 0.36971830986 0.440625 0.44582043344 0.49719101124
          0.440625 0.36971830986 0.16744186047 0 0.013422818792 0.17877094972
          0.3686440678 0.43984962406 0.44609665428 0.49662162162 0.43984962406 0.3686440678
          0.17318435754 0 0 0 0 0
          0 0 0 0 0 0
          0 0.024647887324 0 0 0 0
          0 0 0.024647887324 0 0 0.051212938005
          0.06875 0.038817005545 0.012635379061 0.011666666667 0.038817005545 0.06875
          0.051212938005 0 0 0.064593301435 0.10905730129 0.10491803279
          0.036858974359 0.034023668639 0.10491803279 0.10905730129 0.064593301435 0
          0 0.070588235294 0.15523465704 0.16506410256 0.12283464567 0.11271676301
          0.16506410256 0.15523465704 0.070588235294 0 0 0.081896551724
          0.19333333333 0.25443786982 0.33959537572 0.38985313752 0.25443786982 0.19333333333
          0.081896551724 0 0 0.093301435407 0.24768946396 0.35573770492
          0.41987179487 0.46449704142 0.35573770492 0.24768946396 0.093301435407 0
          0 0.10781671159 0.30833333333 0.39556377079 0.4440433213 0.48666666667
          0.39556377079 0.30833333333 0.10781671159 0 0 0.16197183099
          0.35579514825 0.43062200957 0.44470588235 0.49137931034 0.43062200957 0.35579514825
          0.16197183099 0 0 0.16101694915 0.3538961039 0.42939481268
          0.4447592068 0.49090909091 0.42939481268 0.3538961039 0.16101694915 0
          0 0 0 0 0 0
          0 0 0 0 0 0.025
          0 0 0 0 0 0
          0.025 0 0 0.05023923445 0.068391866913 0.039344262295
          0.012820512821 0.011834319527 0.039344262295 0.068391866913 0.05023923445 0
          0 0.063694267516 0.10819672131 0.10465116279 0.036984352774 0.034120734908
          0.10465116279 0.10819672131 0.063694267516 0 0 0.070981210856
          0.15544871795 0.16500711238 0.12290502793 0.11282051282 0.16500711238 0.15544871795
          0.070981210856 0 0 0.082217973231 0.19378698225 0.25459317585
          0.33974358974 0.38981042654 0.25459317585 0.19378698225 0.082217973231 0
          0 0.093418259023 0.24918032787 0.35610465116 0.41963015647 0.46456692913
          0.35610465116 0.24918032787 0.093418259023 0 0 0.10765550239
          0.30868761553 0.39508196721 0.44391025641 0.48668639053 0.39508196721 0.30868761553
          0.10765550239 0 0 0.1625 0.35645933014 0.43099787686
          0.44467640919 0.4913957935 0.43099787686 0.35645933014 0.1625 0
          0 0.16165413534 0.35446685879 0.42966751918 0.44472361809 0.49078341014
          0.42966751918 0.35446685879 0.16165413534 0 0 0
          0 0 0 0 0 0
          0 0 0 0.02786377709 0 0
          0 0 0 0 0.02786377709 0
          0 0.054117647059 0.070397111913 0.040064102564 0.014173228346 0.013005780347
          0.040064102564 0.070397111913 0.054117647059 0 0 0.066805845511
          0.11057692308 0.106685633 0.037709497207 0.034615384615 0.106685633 0.11057692308
          0.066805845511 0 0 0.074226804124 0.16062992126 0.16759776536
          0.12362637363 0.11292346299 0.16759776536 0.16062992126 0.074226804124 0
          0 0.084427767355 0.19942196532 0.25769230769 0.33877038896 0.39145496536
          0.25769230769 0.19942196532 0.084427767355 0 0 0.093945720251
          0.25320512821 0.35988620199 0.41899441341 0.46666666667 0.35988620199 0.25320512821
          0.093945720251 0 0 0.10588235294 0.31407942238 0.39903846154
          0.44409448819 0.48988439306 0.39903846154 0.31407942238 0.10588235294 0
          0 0.16718266254 0.36705882353 0.43841336117 0.44536082474 0.49530956848
          0.43841336117 0.36705882353 0.16718266254 0 0 0.16728624535
          0.36543909348 0.43718592965 0.44554455446 0.49435665914 0.43718592965 0.36543909348
          0.16728624535 0 0 0 0 0
          0 0 0 0 0 0
          0 0.025280898876 0 0 0 0
          0 0 0.025280898876 0 0 0.049568965517
          0.066666666667 0.038461538462 0.013005780347 0.012016021362 0.038461538462 0.066666666667
          0.049568965517 0 0 0.06309751434 0.1050295858 0.10367454068
          0.037179487179 0.034360189573 0.10367454068 0.1050295858 0.06309751434 0
          0 0.071294559099 0.15462427746 0.1641025641 0.12296110414 0.11316397229
          0.1641025641 0.15462427746 0.071294559099 0 0 0.082616179002
          0.19359145527 0.25473933649 0.34064665127 0.38930481283 0.25473933649 0.19359145527
          0.082616179002 0 0 0.093690248566 0.24852071006 0.35564304462
          0.41923076923 0.46327014218 0.35564304462 0.24852071006 0.093690248566 0
          0 0.10775862069 0.30833333333 0.39349112426 0.4436416185 0.48598130841
          0.39349112426 0.30833333333 0.10775862069 0 0 0.16292134831
          0.35560344828 0.43021032505 0.44465290807 0.49053356282 0.43021032505 0.35560344828
          0.16292134831 0 0 0.16216216216 0.35324675325 0.42857142857
          0.44469525959 0.48962655602 0.42857142857 0.35324675325 0.16216216216 0
          0 0 0 0 0 0
          0 0 0 0 0 0.025
          0 0 0 0 0 0
          0.025 0 0 0.05023923445 0.068391866913 0.039344262295
          0.012820512821 0.011834319527 0.039344262295 0.068391866913 0.05023923445 0
          0 0.063694267516 0.10819672131 0.10465116279 0.036984352774 0.034120734908
          0.10465116279 0.10819672131 0.063694267516 0 0 0.070981210856
          0.15544871795 0.16500711238 0.12290502793 0.11282051282 0.16500711238 0.15544871795
          0.070981210856 0 0 0.082217973231 0.19378698225 0.25459317585
          0.33974358974 0.38981042654 0.25459317585 0.19378698225 0.082217973231 0
          0 0.093418259023 0.24918032787 0.35610465116 0.41963015647 0.46456692913
          0.35610465116 0.24918032787 0.093418259023 0 0 0.10765550239
          0.30868761553 0.39508196721 0.44391025641 0.48668639053 0.39508196721 0.30868761553
          0.10765550239 0 0 0.1625 0.35645933014 0.43099787686
          0.44467640919 0.4913957935 0.43099787686 0.35645933014 0.1625 0
          0 0.16165413534 0.35446685879 0.42966751918 0.44472361809 0.49078341014
          0.42966751918 0.35446685879 0.16165413534 0 0 0
          0 0 0 0 0 0
          0 0 0 0.024647887324 0 0
          0 0 0 0 0.024647887324 0
          0 0.051212938005 0.06875 0.038817005545 0.012635379061 0.011666666667
          0.038817005545 0.06875 0.051212938005 0 0 0.064593301435
          0.10905730129 0.10491803279 0.036858974359 0.034023668639 0.10491803279 0.10905730129
          0.064593301435 0 0 0.070588235294 0.15523465704 0.16506410256
          0.12283464567 0.11271676301 0.16506410256 0.15523465704 0.070588235294 0
          0 0.081896551724 0.19333333333 0.25443786982 0.33959537572 0.38985313752
          0.25443786982 0.19333333333 0.081896551724 0 0 0.093301435407
          0.24768946396 0.35573770492 0.41987179487 0.46449704142 0.35573770492 0.24768946396
          0.093301435407 0 0 0.10781671159 0.30833333333 0.39556377079
          0.4440433213 0.48666666667 0.39556377079 0.30833333333 0.10781671159 0
          0 0.16197183099 0.35579514825 0.43062200957 0.44470588235 0.49137931034
          0.43062200957 0.35579514825 0.16197183099 0 0 0.16101694915
          0.3538961039 0.42939481268 0.4447592068 0.49090909091 0.42939481268 0.3538961039
          0.16101694915 0 0 0 0 0
          0 0 0 0 0 0
          0 0.027906976744 0 0 0 0
          0 0 0.027906976744 0 0 0.056338028169
          0.072776280323 0.040669856459 0.014117647059 0.012931034483 0.040669856459 0.072776280323
          0.056338028169 0 0 0.06875 0.11483253589 0.10828025478
          0.0375782881 0.034416826004 0.10828025478 0.11483253589 0.06875 0
          0 0.074303405573 0.16235294118 0.16910229645 0.12371134021 0.11257035647
          0.16910229645 0.16235294118 0.074303405573 0 0 0.084269662921
          0.20043103448 0.25812619503 0.33771106942 0.39242685026 0.25812619503 0.20043103448
          0.084269662921 0 0 0.09375 0.25358851675 0.36093418259
          0.41962421712 0.46845124283 0.36093418259 0.25358851675 0.09375 0
          0 0.10563380282 0.3153638814 0.4019138756 0.44470588235 0.49137931034
          0.4019138756 0.3153638814 0.10563380282 0 0 0.16744186047
          0.36971830986 0.440625 0.44582043344 0.49719101124 0.440625 0.36971830986
          0.16744186047 0 0 0.16759776536 0.3686440678 0.43984962406
          0.44609665428 0.49662162162 0.43984962406 0.3686440678 0.17318435754 0
          0 0 0 0 0 0
          0 0 0 0 0 0.027932960894
          0 0 0 0 0 0
          0.027932960894 0 0 0.055084745763 0.071428571429 0.040345821326
          0.014164305949 0.012987012987 0.040345821326 0.071428571429 0.055084745763 0
          0 0.067669172932 0.11239193084 0.1074168798 0.037688442211 0.034562211982
          0.1074168798 0.11239193084 0.067669172932 0 0 0.074349442379
          0.16147308782 0.16834170854 0.12376237624 0.11286681716 0.16834170854 0.16147308782
          0.074349442379 0 0 0.084459459459 0.2 0.25806451613
          0.33860045147 0.39211618257 0.25806451613 0.2 0.084459459459 0
          0 0.093984962406 0.25360230548 0.36061381074 0.41959798995 0.46774193548
          0.36061381074 0.25360230548 0.093984962406 0 0 0.10593220339
          0.31493506494 0.40057636888 0.4447592068 0.49090909091 0.40057636888 0.31493506494
          0.10593220339 0 0 0.16759776536 0.3686440678 0.43984962406
          0.44981412639 0.5 0.43984962406 0.3686440678 0.16759776536 0
          0.008064516129 0.1744966443 0.36734693878 0.44343891403 0.45535714286 0.50406504065
          0.44343891403 0.36734693878 0.18120805369 0.008064516129
        </DataArray>
        <DataArray type="Float64" Name="Displacement" NumberOfComponents="3" format="ascii" RangeMin="0.41501161812" RangeMax="1.6084399181">
          0.15029090473 -0.75489436331 -0.42563932051 0.13555390138 -0.70585368074 -0.40973303321
          0.13025747198 -0.65938013133 -0.39380827053 0.11395752866 -0.60997707212 -0.38200551454
          0.10033556097 -0.56228018872 -0.36579459985 0.084332433587 -0.50412247025 -0.35332921012
          0.076386899491 -0.46565391944 -0.33722109225 0.062442467189 -0.41415959117 -0.32292229629
          0.051015522012 -0.35719852997 -0.30865821153 0.039925238791 -0.32103718886 -0.29286588351
          0.1025450849 -0.78315123275 -0.36422338614 0.086882062736 -0.74058648062 -0.3479673119
          0.07646527061 -0.69155201455 -0.33496534351 0.063256864042 -0.63937219284 -0.32061879082
          0.051302784206 -0.59047725726 -0.3053091204 0.038845802429 -0.54247841186 -0.2908253238
          0.027169146708 -0.49347373574 -0.27707814364 0.014773147585 -0.44299437183 -0.26242500092
          0.0026406095277 -0.39223273004 -0.24663217719 -0.014458164904 -0.34162122757 -0.23520319197
          0.056352923313 -0.81617893178 -0.30626757773 0.04287882589 -0.7684177359 -0.28926206682
          0.027659369527 -0.71991329707 -0.27324162694 0.01484654353 -0.67119135349 -0.25926703379
          0.0019743550606 -0.62099423818 -0.2446237703 -0.010153893744 -0.57334371779 -0.23059959313
          -0.022407582598 -0.52462345038 -0.21584572504 -0.035109194718 -0.47381952195 -0.20016061272
          -0.049846098385 -0.42725426258 -0.18840176715 -0.061082769825 -0.37888637217 -0.17550542762
          0.0030993516436 -0.85119961822 -0.24089737178 -0.0073743351753 -0.80156609199 -0.22871566087
          -0.019093201804 -0.7520068445 -0.21349030566 -0.033442407751 -0.70270734825 -0.19790642356
          -0.046810529296 -0.65422913339 -0.18382171533 -0.058150784624 -0.60460745837 -0.16906210526
          -0.072512411659 -0.55516297082 -0.15530233612 -0.084548381918 -0.50718295377 -0.14154954761
          -0.096286902002 -0.45730502341 -0.12661087522 -0.10782463102 -0.405350426 -0.1088566237
          -0.042681818797 -0.88303523136 -0.18239918741 -0.056821533575 -0.83431939104 -0.16591078784
          -0.069252742018 -0.7848715665 -0.15202054348 -0.082673974135 -0.73529150036 -0.13492442455
          -0.0951083036 -0.68557799135 -0.12150873046 -0.10841612738 -0.6366935495 -0.10729106579
          -0.11906846808 -0.58778178372 -0.09250232873 -0.13143773328 -0.53898171093 -0.079133072304
          -0.14364552164 -0.48902081106 -0.063169030204 -0.15728255163 -0.44075186228 -0.050414037552
          -0.092616398838 -0.9140851631 -0.12184549473 -0.10612120994 -0.86551823108 -0.10597791644
          -0.11850026549 -0.81714812112 -0.091231303314 -0.13093170142 -0.76746887142 -0.075058765107
          -0.14155568164 -0.7175635034 -0.056192379423 -0.15828072929 -0.67066012125 -0.044796617132
          -0.16774882593 -0.61974657517 -0.032936028377 -0.17972397758 -0.57021822921 -0.018118309603
          -0.19174828603 -0.51994472975 -0.0028907534802 -0.20662450535 -0.4710795395 0.010072506273
          -0.14331605461 -0.94973397732 -0.059439587677 -0.15526169941 -0.8992981979 -0.045596793332
          -0.16839673531 -0.85001253887 -0.029622387746 -0.18022978934 -0.8002466215 -0.014379686774
          -0.19885267918 -0.74986184625 -0.0011807551967 -0.20090261258 -0.69641658144 0.011979184741
          -0.21598030549 -0.65161193204 0.027520681807 -0.22754192461 -0.60226272033 0.043066221384
          -0.24108634859 -0.55253622283 0.05644599145 -0.25415228189 -0.50274288761 0.07562276729
          -0.19534298819 -0.98443133515 0.0031953275126 -0.20516046751 -0.93259708044 0.0161932272
          -0.2200981796 -0.88348904308 0.032242941849 -0.23086018403 -0.83258015819 0.046972026806
          -0.24351326814 -0.78283272917 0.063810008541 -0.25233974837 -0.73325711329 0.074652527414
          -0.26463718881 -0.68362064273 0.089832741072 -0.277857356 -0.633902652 0.10542633799
          -0.29005923831 -0.58480361575 0.11866684393 -0.29989268051 -0.53525668519 0.13503172871
          -0.24259885458 -1.0162813846 0.062181263197 -0.2565477798 -0.96679982287 0.078349980912
          -0.26943560512 -0.91664836374 0.091298047291 -0.28545039905 -0.86610551481 0.1045554075
          -0.29643261267 -0.81527934187 0.12303507817 -0.30163781963 -0.76823468425 0.13582149296
          -0.31411543494 -0.71499756079 0.15037376754 -0.32739618783 -0.66657937083 0.16437141791
          -0.33824371793 -0.61631488066 0.18229567695 -0.35294967261 -0.56682503939 0.1942409186
          -0.28689497314 -1.0471497631 0.1172107517 -0.30787443773 -1.0023683395 0.13757916396
          -0.32209697453 -0.95019580947 0.15443103429 -0.3348657967 -0.8969658293 0.17019331255
          -0.35481309348 -0.84757959228 0.19689379139 -0.35021144147 -0.79623973861 0.20579196447
          -0.36734665116 -0.75339247665 0.21129419355 -0.37448554186 -0.69880507041 0.22683432888
          -0.39141631729 -0.64979856844 0.24155939104 -0.40859366891 -0.59985627286 0.25845968779
          0.15686664725 -0.81411635728 -0.4418773446 0.15461556205 -0.76999242895 -0.42937372888
          0.14222095745 -0.72032922 -0.41479801507 0.12804187909 -0.66654014173 -0.40167433942
          0.11536223249 -0.61678802585 -0.38725969892 0.10233594304 -0.56662578748 -0.37274332117
          0.090225232008 -0.51830691759 -0.35857563591 0.080251706474 -0.47098929527 -0.3422232867
          0.067411332189 -0.42520832952 -0.32800973373 0.055640040141 -0.36394636529 -0.30973080249
          0.1219474762 -0.84505166173 -0.3864145891 0.10567896781 -0.79909552873 -0.36898496688
          0.093229371288 -0.74952691136 -0.35471771239 0.080526438351 -0.69969128351 -0.33986226862
          0.067711645348 -0.65105394364 -0.32504226197 0.055079335205 -0.6014472967 -0.31031576509
          0.042574959357 -0.55301895363 -0.29600147137 0.029905356702 -0.50460635325 -0.28212354637
          0.018664363555 -0.45532484629 -0.26741408348 0.002084873062 -0.40530134112 -0.25767336225
          0.070260449149 -0.87979108234 -0.32302386322 0.057302507725 -0.83008139962 -0.30883606351
          0.0446838276 -0.78148511698 -0.29325914493 0.032120328382 -0.73130957377 -0.27897924925
          0.01916773803 -0.68299386964 -0.2635309378 0.0061493830158 -0.63291494683 -0.24950192575
          -0.0066097437116 -0.58435607008 -0.23523217774 -0.018259293008 -0.53572194734 -0.22051606348
          -0.031092917634 -0.48628060662 -0.20701134495 -0.043241614915 -0.43756131578 -0.19226685855
          0.022519488345 -0.91175815596 -0.26332486187 0.0086123527258 -0.86348693177 -0.2471943263
          -0.0039085628722 -0.81316242321 -0.23227879144 -0.017014798196 -0.76380792021 -0.21742750045
          -0.029747206173 -0.71427941785 -0.20266010614 -0.042214153887 -0.66519823107 -0.188124657
          -0.053871740269 -0.6158809204 -0.17414122844 -0.067066654465 -0.56742491336 -0.16031023903
          -0.078998636537 -0.51860190334 -0.1451296098 -0.093606946727 -0.46913262048 -0.13274261045
          -0.02740172537 -0.94571374791 -0.20025085964 -0.040530592645 -0.89576325376 -0.18592015425
          -0.052624637303 -0.845301855 -0.17153412729 -0.06593085821 -0.79586664055 -0.1558586005
          -0.07856697579 -0.74654048752 -0.14165330955 -0.090274209473 -0.69756706503 -0.12748592775
          -0.10295499147 -0.64790087974 -0.11278947842 -0.11495639619 -0.59942134147 -0.099002456247
          -0.12753926788 -0.54973975404 -0.083894178612 -0.13981065367 -0.50161694935 -0.068970976452
          -0.076438331385 -0.97793518194 -0.14147069229 -0.089731736874 -0.92785569301 -0.1245215664
          -0.10198286076 -0.87773658734 -0.11037882757 -0.11499345625 -0.82855410431 -0.094738767443
          -0.12750016504 -0.77897333301 -0.080022778083 -0.13846802583 -0.72938179262 -0.066764258696
          -0.15008523254 -0.67992466468 -0.051833384104 -0.16393388588 -0.63072043943 -0.03765277397
          -0.17610035966 -0.58138903022 -0.022604945281 -0.18981242235 -0.53228515587 -0.0097547627623
          -0.12557848004 -1.0104778419 -0.079347443127 -0.13852907361 -0.9601311125 -0.064832776933
          -0.15043303327 -0.90988102825 -0.048979947178 -0.16382372473 -0.86015337325 -0.032997594092
          -0.1794466454 -0.81109804807 -0.019869559133 -0.18555995546 -0.76005979504 -0.0065218438146
          -0.20043305261 -0.7125051674 0.0098589637212 -0.21275176413 -0.66324175221 0.02337330725
          -0.22483951664 -0.61389927287 0.037709859485 -0.23701381152 -0.56480058352 0.053070016668
          -0.17485572469 -1.0433403953 -0.017818251716 -0.18842576211 -0.99449391557 -0.0032827602347
          -0.20117909302 -0.9432998912 0.011579392747 -0.21450591138 -0.89325490471 0.027979723562
          -0.22681386666 -0.84311915433 0.042528720485 -0.23594295673 -0.79428261622 0.055725567036
          -0.24777981672 -0.74407550723 0.070619969713 -0.26063508405 -0.69482941199 0.084257898633
          -0.27285632629 -0.64592790528 0.099217841791 -0.28751009305 -0.59686217132 0.1156186659
          -0.2248629165 -1.0793512461 0.04122145779 -0.23847624909 -1.0273903415 0.057747982803
          -0.25168397906 -0.97601696529 0.073966327399 -0.26651327788 -0.92666415057 0.087111167706
          -0.2788227883 -0.87548755058 0.10394112126 -0.28491057165 -0.82702170878 0.11638265221
          -0.29562375137 -0.77561780716 0.13062555751 -0.31043158953 -0.72708035219 0.14685985188
          -0.32241117018 -0.6778404459 0.16102021261 -0.3344925717 -0.62960085359 0.17408887407
          -0.27442039737 -1.1163227254 0.1047635819 -0.2904473736 -1.0643947818 0.11916173301
          -0.30256058381 -1.0092628131 0.13751351661 -0.31619379284 -0.95991744865 0.1493934529
          -0.32643742521 -0.90587869115 0.16466413844 -0.33706499378 -0.86304126972 0.17518781092
          -0.34730753729 -0.81025347395 0.19227344765 -0.36076443981 -0.75952048632 0.20971700622
          -0.37228782996 -0.71114300812 0.22308458106 -0.38837126342 -0.66138229176 0.23637569812
          0.1759583069 -0.87701715392 -0.45941579883 0.17168254445 -0.82631793474 -0.45059180387
          0.15827298371 -0.77821249292 -0.43378383087 0.14535099634 -0.7272193509 -0.42083692461
          0.13341027651 -0.67796710888 -0.40657673124 0.12018760494 -0.62791831385 -0.39175098572
          0.10686492941 -0.57991638877 -0.37705815082 0.095235487293 -0.53203171634 -0.36198819087
          0.082029498427 -0.48203019224 -0.34881928314 0.071802680694 -0.42804614012 -0.32992486274
          0.13884686317 -0.90960706846 -0.4055948327 0.12247183972 -0.85808019053 -0.38913096703
          0.10996965478 -0.80926194897 -0.37419825526 0.097079220607 -0.7603029585 -0.35946044875
          0.084459405889 -0.71110560307 -0.34502585071 0.071752490991 -0.66136352611 -0.33006569654
          0.0594971089 -0.61258438198 -0.31559098196 0.04650039111 -0.56319667194 -0.3014978584
          0.033848888771 -0.51439706319 -0.28765780112 0.02078971597 -0.46839735112 -0.27572511537
          0.086547315468 -0.94222950285 -0.34231720672 0.074453318293 -0.89106822753 -0.32793909272
          0.061056166274 -0.84185198355 -0.31298052854 0.048444772748 -0.79237134442 -0.29815362448
          0.035731012575 -0.74300588998 -0.28341593064 0.023020062783 -0.69399100901 -0.26895219367
          0.010574688145 -0.64478737187 -0.25455595551 -0.0016224648984 -0.59546808049 -0.24040155212
          -0.014085192947 -0.54648913225 -0.22640134678 -0.025995294831 -0.497819243 -0.2111109107
          0.037285893945 -0.97332388297 -0.28179819928 0.025648119173 -0.92324961335 -0.26686671419
          0.012369103592 -0.87370658868 -0.251919386 -0.00013104967281 -0.82336969384 -0.23711849284
          -0.013029469894 -0.77477802022 -0.22233639305 -0.025660109785 -0.7255662196 -0.20770086631
          -0.038455005126 -0.67621198671 -0.19383428434 -0.05034355206 -0.6274558648 -0.17949196491
          -0.062747294614 -0.57808956711 -0.16508846906 -0.074631576731 -0.5285551486 -0.15086415625
          -0.011412614677 -1.0057442393 -0.21987906428 -0.022889316612 -0.95566997275 -0.20572155825
          -0.036461273174 -0.90610109883 -0.19051968108 -0.04898390201 -0.85622543203 -0.17563271654
          -0.06171416997 -0.80688941431 -0.16120730378 -0.074231014282 -0.75768811987 -0.14676647959
          -0.085780146443 -0.70849551307 -0.13257013691 -0.098196298981 -0.6592456289 -0.11792172466
          -0.1110114381 -0.61030196418 -0.10388697695 -0.12317988476 -0.56071180184 -0.088610421769
          -0.059569452753 -1.0391233766 -0.16093822071 -0.072614264718 -0.98870873045 -0.14487787231
          -0.085555998896 -0.93887114855 -0.13003073122 -0.097737113533 -0.88868095253 -0.11422271339
          -0.11166128152 -0.83941854266 -0.099951077825 -0.12191690605 -0.78967870371 -0.086383023309
          -0.13478749686 -0.74094880127 -0.071074390756 -0.14648958482 -0.69137294409 -0.056984741687
          -0.15896824262 -0.64227589528 -0.042898194416 -0.17183584857 -0.5931733571 -0.029446670562
          -0.10938888624 -1.0722503139 -0.098482836624 -0.12161807121 -1.0211477885 -0.083389152377
          -0.13513368073 -0.97139962833 -0.06900193368 -0.14805398064 -0.92179404616 -0.05308590424
          -0.16156114033 -0.87179334087 -0.039168309657 -0.16941406613 -0.82165427378 -0.025609035842
          -0.18232430146 -0.77265588962 -0.0099087304704 -0.19479165875 -0.72316021268 0.0039086760285
          -0.2079223403 -0.6743234823 0.018820690564 -0.21961155809 -0.62512962147 0.033582327488
          -0.15847893285 -1.103140158 -0.037353630869 -0.17171426703 -1.0537077202 -0.022436420122
          -0.18501745747 -1.004544965 -0.0077146056296 -0.19677626762 -0.95402260816 0.0070518939793
          -0.21140826873 -0.90338094458 0.022354674165 -0.21847378861 -0.85301937633 0.035504985358
          -0.23112941351 -0.80518549057 0.050613880057 -0.24358733821 -0.75529787201 0.065600256873
          -0.25692040997 -0.70558624878 0.080118593931 -0.27049139225 -0.65634897522 0.0948596816
          -0.20756656483 -1.137434882 0.024269171913 -0.2201675314 -1.086224589 0.039472792909
          -0.23402161983 -1.0368910552 0.052925749591 -0.24857794634 -0.98637233275 0.06988305384
          -0.26102625329 -0.93671039132 0.084820134723 -0.26785040825 -0.88647932457 0.098147200223
          -0.27981119227 -0.83622514279 0.11307276031 -0.29283541132 -0.78811368502 0.12608234129
          -0.30806600456 -0.73863844242 0.14175272849 -0.31908664902 -0.68905465984 0.15676973397
          -0.25911452149 -1.1724019303 0.083807407095 -0.27427312717 -1.1244232739 0.097959285461
          -0.28316642361 -1.0696952995 0.11396925753 -0.29859977712 -1.0202750311 0.12848167206
          -0.30805691982 -0.96814322773 0.14250221576 -0.31804235258 -0.92103562866 0.15597585403
          -0.32739500819 -0.86941622447 0.1716792152 -0.34193317427 -0.82098977944 0.18681193305
          -0.35054616252 -0.7707571478 0.20269527316 -0.36713309893 -0.72106787157 0.21655227078
          0.19864127645 -0.93625905291 -0.48508514763 0.18708458292 -0.88800639354 -0.46961183356
          0.17591321375 -0.83920472001 -0.4552233475 0.16136768146 -0.78825642343 -0.43981288835
          0.14993786579 -0.73982386351 -0.42515104831 0.13731068141 -0.69085347886 -0.41059879328
          0.12472334157 -0.64004766431 -0.39660414171 0.11264318286 -0.59266410057 -0.38266585659
          0.1008762946 -0.54029632898 -0.36694294006 0.087675676742 -0.4922928372 -0.35352288349
          0.15099127067 -0.96839628534 -0.42296157795 0.13922057475 -0.9198523229 -0.40805361534
          0.12600566449 -0.87007488041 -0.39346829476 0.11366838957 -0.82075343836 -0.37902546039
          0.10096653246 -0.77138838035 -0.36453367477 0.088736376204 -0.72265170015 -0.3500246595
          0.076259051599 -0.67351658908 -0.33535560974 0.063893108523 -0.62402665113 -0.32114271022
          0.050896457118 -0.57487920874 -0.30679113239 0.038995906019 -0.52506865412 -0.29218908061
          0.10427114261 -1.0019362781 -0.36296130624 0.091386286432 -0.95193204666 -0.34773761699
          0.07816781191 -0.90222953135 -0.3325661972 0.064990639417 -0.85249055364 -0.31781640315
          0.052381979264 -0.80329395213 -0.30308304316 0.039856056067 -0.75415380467 -0.28874035818
          0.027382610864 -0.70479588861 -0.2742998511 0.015231067687 -0.65643339198 -0.25993136509
          0.0028800682408 -0.60726577188 -0.24593643482 -0.0096762736405 -0.55919581011 -0.23205242081
          0.055692693255 -1.0333523942 -0.30197864713 0.041970296449 -0.98444089967 -0.28654456909
          0.029442699071 -0.93423073619 -0.27153461739 0.016480610459 -0.88465713421 -0.25650238198
          0.0036528998616 -0.83519962788 -0.24187879487 -0.0088533153027 -0.7862374099 -0.22758523687
          -0.021019326545 -0.73704997803 -0.21326915704 -0.03358321501 -0.68790523606 -0.19902743429
          -0.045233715384 -0.63867884743 -0.18449526532 -0.058772801417 -0.58976751453 -0.17028010489
          0.0062695754608 -1.0660747186 -0.24021133537 -0.0068527717119 -1.0164441268 -0.22506681014
          -0.019277889244 -0.96654321033 -0.21032424571 -0.032250809726 -0.91681667472 -0.19541803709
          -0.04486838136 -0.86725986293 -0.18052182656 -0.057244484448 -0.8184242894 -0.16634396005
          -0.069498098345 -0.7691648748 -0.15199750421 -0.081994681965 -0.7198935262 -0.13780251752
          -0.094383038137 -0.67072011551 -0.12331491844 -0.10655473906 -0.6223758295 -0.10919863043
          -0.043320318859 -1.0995557634 -0.17936206527 -0.056030297419 -1.0490578887 -0.16397209406
          -0.068506419969 -0.99934350015 -0.14920154597 -0.080891867035 -0.94918501071 -0.13408574273
          -0.094206665551 -0.89984125203 -0.11960752507 -0.10516015894 -0.85040556603 -0.10554017809