<?xml version="1.0"?>
<VTKFile type="UnstructuredGrid" version="0.1" byte_order="LittleEndian" compressor="vtkZLibDataCompressor">
  <UnstructuredGrid>
    <FieldData>
      <DataArray type="Float64" Name="TIME" NumberOfTuples="1" format="ascii" RangeMin="0" RangeMax="0">
        0
      </DataArray>
    </FieldData>
    <Piece NumberOfPoints="3" NumberOfCells="0">
      <PointData>
        <DataArray type="Float64" Name="ID" format="ascii" RangeMin="1" RangeMax="3">
          1 2 3
        </DataArray>
        <DataArray type="Float64" Name="Type" format="ascii" RangeMin="0" RangeMax="7">
          7 0 7
        </DataArray>
        <DataArray type="Float64" Name="Radius" NumberOfComponents="3" format="ascii" RangeMin="0.00030589213785" RangeMax="0.00049956881408">
          0.000392 0.000233 0.000204 0.000205 0.000184 0.000133
          0.000392 0.000233 0.000204
        </DataArray>
        <DataArray type="Float64" Name="Axis a" NumberOfComponents="3" format="ascii" RangeMin="2.8147547345" RangeMax="3.7681290797">
          1.828942 0.567075 2.063066 1.8428132028 2.4878089408 2.1479392298
          1.828942 0.567075 2.063066
        </DataArray>
        <DataArray type="Float64" Name="Axis b" NumberOfComponents="3" format="ascii" RangeMin="1.7970350163" RangeMax="3.1988193614">
          1.352562 1.016575 0.605381 2.0314878565 0.92139742495 2.2927121889
          1.352562 1.016575 0.605381
        </DataArray>
        <DataArray type="Float64" Name="Axis c" NumberOfComponents="3" format="ascii" RangeMin="2.4169324577" RangeMax="2.6508592551">
          0.341324 1.462995 1.893332 0.54620511488 1.505726658 2.1122267858
          0.341324 1.462995 1.893332
        </DataArray>
        <DataArray type="Float64" Name="Ellipsoid" NumberOfComponents="9" format="ascii" RangeMin="0.00030589213785" RangeMax="0.00049956884374">
          0.0002176115926 -3.7177626037e-05 2.7845990201e-05 -3.7177626037e-05 0.00034578498477 -6.2396319074e-05
          2.7845990201e-05 -6.2396319074e-05 0.00026560349648 0.00014827706055 1.6450214394e-06 2.5537872584e-05
          1.6450214394e-06 0.00019701634731 1.0804499945e-05 2.5537872584e-05 1.0804499945e-05 0.00017670659213
          0.0002176115926 -3.7177626037e-05 2.7845990201e-05 -3.7177626037e-05 0.00034578498477 -6.2396319074e-05
          2.7845990201e-05 -6.2396319074e-05 0.00026560349648
        </DataArray>
        <DataArray type="Float64" Name="Velocity" NumberOfComponents="3" format="ascii" RangeMin="0" RangeMax="0.0042286556582">
          0 0 0 -0.0012750256135 0.00011335830887 0.0040302590803
          0 0 0
        </DataArray>
        <DataArray type="Float64" Name="Omega" NumberOfComponents="3" format="ascii" RangeMin="0" RangeMax="25.607924036">
          0 0 0 -22.807615453 -3.5810707972 -11.079457691
          0 0 0
        </DataArray>
        <DataArray type="Float64" Name="Force" NumberOfComponents="3" format="ascii" RangeMin="2.0269018282e-06" RangeMax="0.0044850749823">
          0.0013516236026 -0.00012089945503 -0.004274856086 -0.0013516236026 0.00012089945503 0.0042722834465
          0 0 -2.0269018282e-06
        </DataArray>
        <DataArray type="Float64" Name="Moment" NumberOfComponents="3" format="ascii" RangeMin="0" RangeMax="3.3964273303e-07">
          3.2296347673e-07 2.783534617e-08 1.0137540282e-07 -3.2296347673e-07 -2.783534617e-08 -1.0137540282e-07
          0 0 0
        </DataArray>
      </PointData>
      <CellData>
      </CellData>
      <Points>
        <DataArray type="Float32" Name="Points" NumberOfComponents="3" format="ascii" RangeMin="0.00035236911871" RangeMax="0.0034439053509">
          0.00025480776094 0.00024100000155 3.4000000596e-05 0.00015015197278 0.0002010523749 0.00041558843805
          0.00025480776094 0.00024100000155 0.0034260000102
        </DataArray>
      </Points>
      <Cells>
        <DataArray type="Int64" Name="connectivity" format="ascii" RangeMin="1e+299" RangeMax="-1e+299">
        </DataArray>
        <DataArray type="Int64" Name="offsets" format="ascii" RangeMin="1e+299" RangeMax="-1e+299">
        </DataArray>
        <DataArray type="UInt8" Name="types" format="ascii" RangeMin="1e+299" RangeMax="-1e+299">
        </DataArray>
      </Cells>
    </Piece>
  </UnstructuredGrid>
</VTKFile>
